! Sonnet Data File
! From: emgraph Version : 9.52
! From Emgraph Data: finline-10Ohm-transition-straight
! Data File Written: 03/23/2004 15:16:51
!< HDATE 01/20/2004 09:15:53
!< MDATE 01/20/2004 09:15:53
# GHZ S MA TERM 26.00000 0.000000 10.00000 0.000000
500.000000 0.057866 69.489 0.996627 -149.9 0.996627 -149.9 0.057592 170.46
!< P1 F=500.0 Eeff=(6.87013313 -2.7633e-3) Z0=(22.9042449 0.00698081) R=1.08278305 C=9.98899e-5 
!< P2 F=500.0 Eeff=(7.66534382 -3.0925e-3) Z0=(9.13833369 0.00278796) R=0.37908232 C=2.91378e-4 
600.000000 0.057915 15.211 0.996277 107.91 0.996277 107.91 0.057813 21.068
!< P1 F=600.0 Eeff=(7.21395429 -4.2387e-3) Z0=(10.6833851 0.07062664) R=0.89763282 C=9.95976e-5 
!< P2 F=600.0 Eeff=(7.70302147 -0.2970654) Z0=(0.12626503 12.057987) R=0.29204466 C=2.89446e-4 
700.000000 0.025541 19.035 0.997288 5.6686 0.997288 5.6686 0.025333 172.22
!< P1 F=700.0 Eeff=(7.12530061 -3.0696e-3) Z0=(36.7309012 0.02690675) R=0.75678222 C=9.92843e-5 
!< P2 F=700.0 Eeff=(7.85759895 -3.2135e-3) Z0=(11.5792222 0.00401377) R=0.25442187 C=2.8738e-4 
800.000000 0.042739 6.1021 0.996362 -96.46 0.996362 -96.46 0.042525 -18.58
!< P1 F=800.0 Eeff=(7.40078682 -3.087e-3) Z0=(31.8555287 0.00881421) R=0.65967058 C=9.89645e-5 
!< P2 F=800.0 Eeff=(7.99366826 -3.239e-3) Z0=(11.1021077 0.00261405) R=0.2194991 C=2.85271e-4 
900.000000 0.035944 -48.22 0.996286 161.54 0.996286 161.54 0.035934 -168.6
!< P1 F=900.0 Eeff=(6.84167072 -2.7411e-3) Z0=(22.7930777 0.00700751) R=0.59701791 C=9.86201e-5 
!< P2 F=900.0 Eeff=(7.63682775 -3.0713e-3) Z0=(9.07230885 0.00282319) R=0.20424381 C=2.83013e-4 
