! Sonnet Data File
! From: emgraph Version : 9.52
! From Emgraph Data: bal_13-7Ohm_10x48-5_7x11-5_130fF
! Data File Written: 03/23/2004 15:15:01
!< HDATE 03/23/2004 13:47:26
!< MDATE 03/23/2004 13:47:26
# GHZ S MA FTERM 13.70000 0.000000 0.000000 1.30e-13 &
 13.70000 0.000000 0.000000 1.30e-13 &
 13.70000 0.000000 0.000000 0.000000
300.000000 0.918464 -22.98 0.295153 75.497 0.263157 -19.11
           0.295153 75.497 0.880271 -27.12 0.371375 -27.70
           0.263157 -19.11 0.371375 -27.70 0.890342 138.18
!< P1 F=300.0 Eeff=(undefined: nd) Z0=(undefined: nd) R=0.0 C=0.0 
!< P2 F=300.0 Eeff=(undefined: nd) Z0=(undefined: nd) R=0.0 C=0.0 
!< P3 F=300.0 Eeff=(7.49846434 -2.9916e-3) Z0=(7.01322048 0.00140555) R=0.05029384 C=5.51215e-4 
302.000000 0.919170 -22.90 0.294358 75.501 0.261127 -19.38
           0.294358 75.501 0.880378 -27.06 0.371737 -28.06
           0.261127 -19.38 0.371737 -28.06 0.891180 137.48
304.000000 0.919860 -22.82 0.293589 75.503 0.259120 -19.65
           0.293589 75.503 0.880462 -27.00 0.372128 -28.43
           0.259120 -19.65 0.372128 -28.43 0.891968 136.77
306.000000 0.920535 -22.75 0.292846 75.505 0.257136 -19.91
           0.292846 75.505 0.880523 -26.94 0.372546 -28.81
           0.257136 -19.91 0.372546 -28.81 0.892706 136.06
308.000000 0.921196 -22.67 0.292129 75.507 0.255175 -20.16
           0.292129 75.507 0.880560 -26.89 0.372992 -29.18
           0.255175 -20.16 0.372992 -29.18 0.893398 135.35
310.000000 0.921842 -22.60 0.291438 75.507 0.253235 -20.42
           0.291438 75.507 0.880574 -26.84 0.373467 -29.56
           0.253235 -20.42 0.373467 -29.56 0.894044 134.64
312.000000 0.922475 -22.53 0.290772 75.506 0.251316 -20.67
           0.290772 75.506 0.880565 -26.78 0.373970 -29.94
           0.251316 -20.67 0.373970 -29.94 0.894646 133.93
314.000000 0.923095 -22.46 0.290133 75.505 0.249416 -20.92
           0.290133 75.505 0.880532 -26.73 0.374503 -30.32
           0.249416 -20.92 0.374503 -30.32 0.895205 133.21
316.000000 0.923701 -22.40 0.289519 75.503 0.247535 -21.17
           0.289519 75.503 0.880477 -26.68 0.375064 -30.71
           0.247535 -21.17 0.375064 -30.71 0.895722 132.50
318.000000 0.924295 -22.33 0.288930 75.500 0.245671 -21.41
           0.288930 75.500 0.880398 -26.64 0.375655 -31.10
           0.245671 -21.41 0.375655 -31.10 0.896199 131.78
320.000000 0.924876 -22.26 0.288368 75.496 0.243825 -21.65
           0.288368 75.496 0.880296 -26.59 0.376275 -31.49
           0.243825 -21.65 0.376275 -31.49 0.896637 131.05
322.000000 0.925444 -22.20 0.287830 75.492 0.241995 -21.89
           0.287830 75.492 0.880171 -26.55 0.376926 -31.88
           0.241995 -21.89 0.376926 -31.88 0.897036 130.33
324.000000 0.926001 -22.14 0.287318 75.486 0.240180 -22.13
           0.287318 75.486 0.880023 -26.51 0.377607 -32.28
           0.240180 -22.13 0.377607 -32.28 0.897398 129.60
326.000000 0.926546 -22.08 0.286832 75.479 0.238380 -22.36
           0.286832 75.479 0.879851 -26.47 0.378319 -32.68
           0.238380 -22.36 0.378319 -32.68 0.897723 128.87
328.000000 0.927080 -22.02 0.286371 75.472 0.236593 -22.60
           0.286371 75.472 0.879657 -26.43 0.379061 -33.08
           0.236593 -22.60 0.379061 -33.08 0.898013 128.14
330.000000 0.927603 -21.96 0.285935 75.463 0.234818 -22.82
           0.285935 75.463 0.879438 -26.39 0.379835 -33.49
           0.234818 -22.82 0.379835 -33.49 0.898269 127.40
332.000000 0.928114 -21.91 0.285525 75.453 0.233056 -23.05
           0.285525 75.453 0.879197 -26.36 0.380641 -33.90
           0.233056 -23.05 0.380641 -33.90 0.898490 126.66
334.000000 0.928615 -21.85 0.285140 75.442 0.231305 -23.28
           0.285140 75.442 0.878931 -26.32 0.381479 -34.31
           0.231305 -23.28 0.381479 -34.31 0.898679 125.92
336.000000 0.929106 -21.80 0.284780 75.430 0.229564 -23.50
           0.284780 75.430 0.878642 -26.29 0.382348 -34.72
           0.229564 -23.50 0.382348 -34.72 0.898835 125.17
338.000000 0.929586 -21.75 0.284446 75.417 0.227833 -23.72
           0.284446 75.417 0.878329 -26.26 0.383251 -35.14
           0.227833 -23.72 0.383251 -35.14 0.898960 124.42
340.000000 0.930056 -21.70 0.284137 75.403 0.226110 -23.94
           0.284137 75.403 0.877992 -26.23 0.384186 -35.56
           0.226110 -23.94 0.384186 -35.56 0.899053 123.66
342.000000 0.930516 -21.65 0.283853 75.387 0.224395 -24.15
           0.283853 75.387 0.877630 -26.20 0.385155 -35.99
           0.224395 -24.15 0.385155 -35.99 0.899116 122.90
344.000000 0.930967 -21.60 0.283595 75.370 0.222687 -24.37
           0.283595 75.370 0.877244 -26.18 0.386158 -36.42
           0.222687 -24.37 0.386158 -36.42 0.899149 122.13
346.000000 0.931407 -21.55 0.283362 75.352 0.220985 -24.58
           0.283362 75.352 0.876834 -26.15 0.387194 -36.85
           0.220985 -24.58 0.387194 -36.85 0.899152 121.36
348.000000 0.931839 -21.51 0.283155 75.332 0.219288 -24.78
           0.283155 75.332 0.876398 -26.13 0.388265 -37.29
           0.219288 -24.78 0.388265 -37.29 0.899126 120.58
350.000000 0.932261 -21.46 0.282973 75.311 0.217596 -24.99
           0.282973 75.311 0.875937 -26.11 0.389371 -37.73
           0.217596 -24.99 0.389371 -37.73 0.899071 119.80
352.000000 0.932674 -21.42 0.282817 75.288 0.215908 -25.19
           0.282817 75.288 0.875451 -26.09 0.390511 -38.17
           0.215908 -25.19 0.390511 -38.17 0.898988 119.02
354.000000 0.933078 -21.38 0.282686 75.264 0.214223 -25.39
           0.282686 75.264 0.874938 -26.07 0.391687 -38.62
           0.214223 -25.39 0.391687 -38.62 0.898878 118.22
356.000000 0.933474 -21.34 0.282581 75.239 0.212540 -25.59
           0.282581 75.239 0.874400 -26.05 0.392899 -39.07
           0.212540 -25.59 0.392899 -39.07 0.898739 117.43
358.000000 0.933860 -21.31 0.282502 75.211 0.210858 -25.78
           0.282502 75.211 0.873836 -26.04 0.394148 -39.53
           0.210858 -25.78 0.394148 -39.53 0.898573 116.62
360.000000 0.934238 -21.27 0.282448 75.182 0.209177 -25.97
           0.282448 75.182 0.873244 -26.03 0.395432 -39.98
           0.209177 -25.97 0.395432 -39.98 0.898379 115.81
362.000000 0.934607 -21.23 0.282420 75.151 0.207496 -26.16
           0.282420 75.151 0.872626 -26.01 0.396754 -40.45
           0.207496 -26.16 0.396754 -40.45 0.898159 115.00
364.000000 0.934968 -21.20 0.282419 75.119 0.205815 -26.34
           0.282419 75.119 0.871980 -26.00 0.398113 -40.92
           0.205815 -26.34 0.398113 -40.92 0.897911 114.17
366.000000 0.935320 -21.17 0.282443 75.084 0.204131 -26.52
           0.282443 75.084 0.871307 -25.99 0.399510 -41.39
           0.204131 -26.52 0.399510 -41.39 0.897637 113.34
368.000000 0.935664 -21.14 0.282493 75.048 0.202446 -26.70
           0.282493 75.048 0.870605 -25.99 0.400945 -41.86
           0.202446 -26.70 0.400945 -41.86 0.897336 112.51
370.000000 0.936000 -21.11 0.282570 75.010 0.200757 -26.87
           0.282570 75.010 0.869874 -25.98 0.402418 -42.35
           0.200757 -26.87 0.402418 -42.35 0.897008 111.66
372.000000 0.936327 -21.08 0.282673 74.969 0.199064 -27.04
           0.282673 74.969 0.869115 -25.98 0.403930 -42.83
           0.199064 -27.04 0.403930 -42.83 0.896654 110.81
374.000000 0.936646 -21.06 0.282802 74.927 0.197367 -27.20
           0.282802 74.927 0.868326 -25.97 0.405481 -43.32
           0.197367 -27.20 0.405481 -43.32 0.896273 109.95
376.000000 0.936957 -21.03 0.282958 74.882 0.195665 -27.36
           0.282958 74.882 0.867507 -25.97 0.407072 -43.82
           0.195665 -27.36 0.407072 -43.82 0.895865 109.09
378.000000 0.937259 -21.01 0.283141 74.835 0.193957 -27.51
           0.283141 74.835 0.866657 -25.97 0.408703 -44.32
           0.193957 -27.51 0.408703 -44.32 0.895431 108.21
380.000000 0.937554 -20.99 0.283350 74.786 0.192243 -27.66
           0.283350 74.786 0.865776 -25.97 0.410375 -44.82
           0.192243 -27.66 0.410375 -44.82 0.894969 107.33
382.000000 0.937840 -20.97 0.283587 74.734 0.190521 -27.80
           0.283587 74.734 0.864864 -25.97 0.412087 -45.33
           0.190521 -27.80 0.412087 -45.33 0.894481 106.44
384.000000 0.938118 -20.95 0.283850 74.680 0.188792 -27.94
           0.283850 74.680 0.863920 -25.98 0.413840 -45.84
           0.188792 -27.94 0.413840 -45.84 0.893966 105.54
386.000000 0.938388 -20.93 0.284140 74.623 0.187054 -28.07
           0.284140 74.623 0.862943 -25.98 0.415635 -46.36
           0.187054 -28.07 0.415635 -46.36 0.893423 104.63
388.000000 0.938649 -20.91 0.284458 74.564 0.185307 -28.19
           0.284458 74.564 0.861932 -25.99 0.417472 -46.89
           0.185307 -28.19 0.417472 -46.89 0.892853 103.71
390.000000 0.938902 -20.90 0.284803 74.501 0.183551 -28.30
           0.284803 74.501 0.860888 -26.00 0.419350 -47.42
           0.183551 -28.30 0.419350 -47.42 0.892255 102.79
392.000000 0.939146 -20.89 0.285176 74.436 0.181785 -28.41
           0.285176 74.436 0.859809 -26.01 0.421272 -47.96
           0.181785 -28.41 0.421272 -47.96 0.891630 101.85
394.000000 0.939382 -20.88 0.285577 74.369 0.180009 -28.51
           0.285577 74.369 0.858696 -26.02 0.423236 -48.50
           0.180009 -28.51 0.423236 -48.50 0.890975 100.91
396.000000 0.939609 -20.87 0.286005 74.298 0.178221 -28.59
           0.286005 74.298 0.857546 -26.03 0.425244 -49.04
           0.178221 -28.59 0.425244 -49.04 0.890293 99.951
398.000000 0.939828 -20.86 0.286461 74.224 0.176422 -28.67
           0.286461 74.224 0.856360 -26.04 0.427295 -49.60
           0.176422 -28.67 0.427295 -49.60 0.889581 98.986
400.000000 0.940038 -20.85 0.286946 74.147 0.174612 -28.74
           0.286946 74.147 0.855137 -26.06 0.429390 -50.16
           0.174612 -28.74 0.429390 -50.16 0.888840 98.010
402.000000 0.940238 -20.85 0.287459 74.067 0.172789 -28.79
           0.287459 74.067 0.853876 -26.07 0.431529 -50.72
           0.172789 -28.79 0.431529 -50.72 0.888070 97.024
404.000000 0.940429 -20.85 0.288000 73.983 0.170954 -28.84
           0.288000 73.983 0.852576 -26.09 0.433712 -51.29
           0.170954 -28.84 0.433712 -51.29 0.887269 96.028
406.000000 0.940611 -20.85 0.288570 73.896 0.169107 -28.87
           0.288570 73.896 0.851237 -26.11 0.435941 -51.87
           0.169107 -28.87 0.435941 -51.87 0.886438 95.020
408.000000 0.940784 -20.85 0.289169 73.805 0.167248 -28.89
           0.289169 73.805 0.849858 -26.13 0.438214 -52.46
           0.167248 -28.89 0.438214 -52.46 0.885575 94.002
410.000000 0.940946 -20.85 0.289796 73.711 0.165376 -28.89
           0.289796 73.711 0.848438 -26.15 0.440533 -53.05
           0.165376 -28.89 0.440533 -53.05 0.884681 92.972
412.000000 0.941099 -20.85 0.290453 73.613 0.163492 -28.87
           0.290453 73.613 0.846977 -26.17 0.442897 -53.64
           0.163492 -28.87 0.442897 -53.64 0.883755 91.930
414.000000 0.941241 -20.86 0.291139 73.511 0.161595 -28.84
           0.291139 73.511 0.845472 -26.19 0.445306 -54.25
           0.161595 -28.84 0.445306 -54.25 0.882797 90.877
416.000000 0.941372 -20.87 0.291854 73.406 0.159687 -28.79
           0.291854 73.406 0.843925 -26.21 0.447762 -54.86
           0.159687 -28.79 0.447762 -54.86 0.881805 89.811
418.000000 0.941493 -20.88 0.292599 73.296 0.157767 -28.72
           0.292599 73.296 0.842333 -26.24 0.450263 -55.48
           0.157767 -28.72 0.450263 -55.48 0.880779 88.734
420.000000 0.941603 -20.89 0.293373 73.182 0.155837 -28.63
           0.293373 73.182 0.840697 -26.26 0.452811 -56.10
           0.155837 -28.63 0.452811 -56.10 0.879719 87.644
422.000000 0.941701 -20.90 0.294178 73.063 0.153897 -28.52
           0.294178 73.063 0.839014 -26.29 0.455405 -56.73
           0.153897 -28.52 0.455405 -56.73 0.878624 86.541
424.000000 0.941787 -20.92 0.295012 72.941 0.151947 -28.38
           0.295012 72.941 0.837285 -26.32 0.458045 -57.37
           0.151947 -28.38 0.458045 -57.37 0.877493 85.425
426.000000 0.941861 -20.93 0.295876 72.814 0.149989 -28.21
           0.295876 72.814 0.835508 -26.34 0.460731 -58.02
           0.149989 -28.21 0.460731 -58.02 0.876326 84.295
428.000000 0.941923 -20.95 0.296770 72.682 0.148025 -28.02
           0.296770 72.682 0.833683 -26.37 0.463464 -58.68
           0.148025 -28.02 0.463464 -58.68 0.875121 83.153
430.000000 0.941971 -20.97 0.297695 72.545 0.146056 -27.80
           0.297695 72.545 0.831809 -26.40 0.466243 -59.34
           0.146056 -27.80 0.466243 -59.34 0.873878 81.996
432.000000 0.942006 -21.00 0.298649 72.404 0.144083 -27.55
           0.298649 72.404 0.829884 -26.43 0.469069 -60.01
           0.144083 -27.55 0.469069 -60.01 0.872597 80.826
434.000000 0.942027 -21.02 0.299635 72.257 0.142109 -27.26
           0.299635 72.257 0.827908 -26.46 0.471940 -60.69
           0.142109 -27.26 0.471940 -60.69 0.871275 79.641
436.000000 0.942033 -21.05 0.300650 72.105 0.140137 -26.93
           0.300650 72.105 0.825879 -26.49 0.474857 -61.37
           0.140137 -26.93 0.474857 -61.37 0.869914 78.442
438.000000 0.942024 -21.08 0.301697 71.949 0.138168 -26.56
           0.301697 71.949 0.823798 -26.52 0.477820 -62.07
           0.138168 -26.56 0.477820 -62.07 0.868511 77.229
440.000000 0.941999 -21.11 0.302773 71.786 0.136208 -26.16
           0.302773 71.786 0.821663 -26.55 0.480828 -62.77
           0.136208 -26.16 0.480828 -62.77 0.867065 76.000
442.000000 0.941958 -21.14 0.303881 71.619 0.134258 -25.71
           0.303881 71.619 0.819474 -26.58 0.483882 -63.48
           0.134258 -25.71 0.483882 -63.48 0.865577 74.757
444.000000 0.941900 -21.18 0.305019 71.445 0.132323 -25.21
           0.305019 71.445 0.817228 -26.62 0.486980 -64.21
           0.132323 -25.21 0.486980 -64.21 0.864045 73.498
446.000000 0.941824 -21.22 0.306188 71.266 0.130409 -24.65
           0.306188 71.266 0.814927 -26.65 0.490123 -64.93
           0.130409 -24.65 0.490123 -64.93 0.862467 72.223
448.000000 0.941730 -21.26 0.307387 71.081 0.128519 -24.05
           0.307387 71.081 0.812567 -26.68 0.493309 -65.67
           0.128519 -24.05 0.493309 -65.67 0.860844 70.933
450.000000 0.941616 -21.30 0.308617 70.890 0.126660 -23.39
           0.308617 70.890 0.810150 -26.71 0.496539 -66.42
           0.126660 -23.39 0.496539 -66.42 0.859173 69.626
452.000000 0.941482 -21.35 0.309878 70.693 0.124839 -22.67
           0.309878 70.693 0.807674 -26.74 0.499812 -67.18
           0.124839 -22.67 0.499812 -67.18 0.857454 68.304
454.000000 0.941328 -21.39 0.311169 70.489 0.123061 -21.88
           0.311169 70.489 0.805138 -26.77 0.503126 -67.94
           0.123061 -21.88 0.503126 -67.94 0.855687 66.965
456.000000 0.941152 -21.44 0.312490 70.279 0.121337 -21.03
           0.312490 70.279 0.802542 -26.80 0.506482 -68.72
           0.121337 -21.03 0.506482 -68.72 0.853869 65.609
458.000000 0.940953 -21.50 0.313841 70.063 0.119673 -20.11
           0.313841 70.063 0.799884 -26.83 0.509878 -69.50
           0.119673 -20.11 0.509878 -69.50 0.851999 64.236
460.000000 0.940730 -21.55 0.315223 69.840 0.118079 -19.12
           0.315223 69.840 0.797165 -26.86 0.513313 -70.30
           0.118079 -19.12 0.513313 -70.30 0.850078 62.846
462.000000 0.940482 -21.61 0.316634 69.610 0.116567 -18.06
           0.316634 69.610 0.794384 -26.88 0.516787 -71.10
           0.116567 -18.06 0.516787 -71.10 0.848103 61.438
464.000000 0.940209 -21.67 0.318075 69.373 0.115145 -16.92
           0.318075 69.373 0.791539 -26.91 0.520298 -71.92
           0.115145 -16.92 0.520298 -71.92 0.846073 60.014
466.000000 0.939909 -21.73 0.319546 69.129 0.113828 -15.70
           0.319546 69.129 0.788631 -26.94 0.523845 -72.74
           0.113828 -15.70 0.523845 -72.74 0.843987 58.571
468.000000 0.939580 -21.79 0.321045 68.878 0.112626 -14.41
           0.321045 68.878 0.785658 -26.96 0.527428 -73.58
           0.112626 -14.41 0.527428 -73.58 0.841845 57.110
470.000000 0.939223 -21.86 0.322574 68.619 0.111554 -13.03
           0.322574 68.619 0.782622 -26.98 0.531043 -74.42
           0.111554 -13.03 0.531043 -74.42 0.839644 55.632
472.000000 0.938834 -21.93 0.324130 68.353 0.110625 -11.59
           0.324130 68.353 0.779521 -27.00 0.534691 -75.28
           0.110625 -11.59 0.534691 -75.28 0.837384 54.135
474.000000 0.938414 -22.00 0.325715 68.080 0.109854 -10.07
           0.325715 68.080 0.776355 -27.02 0.538370 -76.14
           0.109854 -10.07 0.538370 -76.14 0.835063 52.620
476.000000 0.937960 -22.08 0.327328 67.799 0.109255 -8.486
           0.327328 67.799 0.773124 -27.03 0.542077 -77.02
           0.109255 -8.486 0.542077 -77.02 0.832680 51.086
478.000000 0.937471 -22.16 0.328968 67.510 0.108842 -6.839
           0.328968 67.510 0.769828 -27.05 0.545812 -77.90
           0.108842 -6.839 0.545812 -77.90 0.830235 49.533
480.000000 0.936946 -22.24 0.330634 67.213 0.108630 -5.137
           0.330634 67.213 0.766467 -27.06 0.549571 -78.80
           0.108630 -5.137 0.549571 -78.80 0.827725 47.962
482.000000 0.936384 -22.32 0.332327 66.909 0.108634 -3.388
           0.332327 66.909 0.763041 -27.06 0.553354 -79.71
           0.108634 -3.388 0.553354 -79.71 0.825150 46.371
484.000000 0.935781 -22.41 0.334046 66.596 0.108865 -1.603
           0.334046 66.596 0.759551 -27.07 0.557159 -80.63
           0.108865 -1.603 0.557159 -80.63 0.822508 44.761
486.000000 0.935138 -22.50 0.335789 66.275 0.109338 0.2074
           0.335789 66.275 0.755996 -27.07 0.560982 -81.56
           0.109338 0.2074 0.560982 -81.56 0.819798 43.133
488.000000 0.934452 -22.59 0.337557 65.945 0.110062 2.0311
           0.337557 65.945 0.752378 -27.07 0.564822 -82.50
           0.110062 2.0311 0.564822 -82.50 0.817018 41.485
490.000000 0.933721 -22.68 0.339349 65.608 0.111047 3.8554
           0.339349 65.608 0.748697 -27.06 0.568677 -83.45
           0.111047 3.8554 0.568677 -83.45 0.814169 39.817
492.000000 0.932944 -22.78 0.341164 65.261 0.112301 5.6672
           0.341164 65.261 0.744954 -27.05 0.572544 -84.41
           0.112301 5.6672 0.572544 -84.41 0.811247 38.130
494.000000 0.932119 -22.88 0.343001 64.907 0.113831 7.4534
           0.343001 64.907 0.741150 -27.03 0.576420 -85.38
           0.113831 7.4534 0.576420 -85.38 0.808253 36.424
496.000000 0.931244 -22.99 0.344859 64.543 0.115641 9.2015
           0.344859 64.543 0.737285 -27.01 0.580303 -86.37
           0.115641 9.2015 0.580303 -86.37 0.805185 34.698
498.000000 0.930316 -23.09 0.346738 64.171 0.117733 10.900
           0.346738 64.171 0.733362 -26.99 0.584190 -87.36
           0.117733 10.900 0.584190 -87.36 0.802042 32.953
500.000000 0.929335 -23.20 0.348636 63.791 0.120107 12.537
           0.348636 63.791 0.729382 -26.96 0.588079 -88.37
           0.120107 12.537 0.588079 -88.37 0.798822 31.189
502.000000 0.928297 -23.31 0.350554 63.401 0.122764 14.103
           0.350554 63.401 0.725346 -26.92 0.591965 -89.39
           0.122764 14.103 0.591965 -89.39 0.795524 29.404
504.000000 0.927201 -23.43 0.352489 63.003 0.125701 15.591
           0.352489 63.003 0.721256 -26.88 0.595847 -90.42
           0.125701 15.591 0.595847 -90.42 0.792148 27.601
506.000000 0.926045 -23.55 0.354441 62.595 0.128914 16.994
           0.354441 62.595 0.717114 -26.83 0.599721 -91.45
           0.128914 16.994 0.599721 -91.45 0.788692 25.778
508.000000 0.924826 -23.67 0.356409 62.179 0.132397 18.306
           0.356409 62.179 0.712922 -26.77 0.603584 -92.50
           0.132397 18.306 0.603584 -92.50 0.785154 23.936
510.000000 0.923542 -23.79 0.358392 61.754 0.136146 19.523
           0.358392 61.754 0.708683 -26.71 0.607432 -93.57
           0.136146 19.523 0.607432 -93.57 0.781535 22.075
512.000000 0.922192 -23.92 0.360388 61.320 0.140154 20.643
           0.360388 61.320 0.704398 -26.64 0.611264 -94.64
           0.140154 20.643 0.611264 -94.64 0.777832 20.195
!< P1 F=512.0 Eeff=(undefined: nd) Z0=(undefined: nd) R=0.0 C=0.0 
!< P2 F=512.0 Eeff=(undefined: nd) Z0=(undefined: nd) R=0.0 C=0.0 
!< P3 F=512.0 Eeff=(7.62398651 -3.0336e-3) Z0=(6.88321897 0.00146873) R=0.4028412 C=5.44638e-4 
514.000000 0.920772 -24.05 0.362397 60.877 0.144412 21.665
           0.362397 60.877 0.700072 -26.56 0.615074 -95.72
           0.144412 21.665 0.615074 -95.72 0.774045 18.296
516.000000 0.919281 -24.18 0.364418 60.425 0.148915 22.588
           0.364418 60.425 0.695706 -26.48 0.618860 -96.81
           0.148915 22.588 0.618860 -96.81 0.770172 16.378
518.000000 0.917716 -24.32 0.366448 59.964 0.153654 23.413
           0.366448 59.964 0.691304 -26.38 0.622619 -97.92
           0.153654 23.413 0.622619 -97.92 0.766213 14.442
520.000000 0.916075 -24.45 0.368489 59.494 0.158621 24.142
           0.368489 59.494 0.686869 -26.28 0.626347 -99.03
           0.158621 24.142 0.626347 -99.03 0.762166 12.488
522.000000 0.914355 -24.59 0.370537 59.016 0.163809 24.777
           0.370537 59.016 0.682405 -26.17 0.630040 -100.2
           0.163809 24.777 0.630040 -100.2 0.758030 10.515
524.000000 0.912555 -24.74 0.372592 58.528 0.169208 25.319
           0.372592 58.528 0.677915 -26.05 0.633696 -101.3
           0.169208 25.319 0.633696 -101.3 0.753805 8.5250
526.000000 0.910671 -24.88 0.374653 58.031 0.174813 25.773
           0.374653 58.031 0.673403 -25.92 0.637310 -102.4
           0.174813 25.773 0.637310 -102.4 0.749489 6.5172
528.000000 0.908702 -25.03 0.376718 57.526 0.180613 26.141
           0.376718 57.526 0.668873 -25.77 0.640880 -103.6
           0.180613 26.141 0.640880 -103.6 0.745081 4.4921
530.000000 0.906644 -25.18 0.378787 57.012 0.186604 26.426
           0.378787 57.012 0.664329 -25.62 0.644402 -104.8
           0.186604 26.426 0.644402 -104.8 0.740580 2.4502
532.000000 0.904497 -25.34 0.380859 56.489 0.192776 26.632
           0.380859 56.489 0.659775 -25.46 0.647873 -105.9
           0.192776 26.632 0.647873 -105.9 0.735985 0.3916
534.000000 0.902256 -25.49 0.382931 55.957 0.199122 26.763
           0.382931 55.957 0.655216 -25.28 0.651289 -107.1
           0.199122 26.763 0.651289 -107.1 0.731296 -1.683
536.000000 0.899921 -25.65 0.385003 55.417 0.205636 26.821
           0.385003 55.417 0.650656 -25.10 0.654647 -108.3
           0.205636 26.821 0.654647 -108.3 0.726510 -3.774
538.000000 0.897488 -25.81 0.387075 54.869 0.212311 26.810
           0.387075 54.869 0.646101 -24.90 0.657945 -109.5
           0.212311 26.810 0.657945 -109.5 0.721627 -5.880
540.000000 0.894956 -25.97 0.389144 54.312 0.219140 26.734
           0.389144 54.312 0.641553 -24.69 0.661179 -110.7
           0.219140 26.734 0.661179 -110.7 0.716646 -8.001
542.000000 0.892321 -26.13 0.391210 53.746 0.226117 26.595
           0.391210 53.746 0.637020 -24.47 0.664346 -112.0
           0.226117 26.595 0.664346 -112.0 0.711565 -10.14
544.000000 0.889582 -26.30 0.393272 53.173 0.233236 26.398
           0.393272 53.173 0.632504 -24.24 0.667444 -113.2
           0.233236 26.398 0.667444 -113.2 0.706383 -12.29
546.000000 0.886736 -26.47 0.395329 52.591 0.240489 26.143
           0.395329 52.591 0.628012 -23.99 0.670469 -114.4
           0.240489 26.143 0.670469 -114.4 0.701099 -14.45
548.000000 0.883782 -26.63 0.397381 52.001 0.247872 25.836
           0.397381 52.001 0.623547 -23.73 0.673420 -115.7
           0.247872 25.836 0.673420 -115.7 0.695712 -16.63
550.000000 0.880716 -26.81 0.399425 51.403 0.255379 25.477
           0.399425 51.403 0.619116 -23.46 0.676294 -116.9
           0.255379 25.477 0.676294 -116.9 0.690220 -18.82
552.000000 0.877538 -26.98 0.401462 50.796 0.263003 25.071
           0.401462 50.796 0.614723 -23.17 0.679088 -118.2
           0.263003 25.071 0.679088 -118.2 0.684621 -21.02
554.000000 0.874243 -27.15 0.403490 50.183 0.270740 24.618
           0.403490 50.183 0.610372 -22.87 0.681801 -119.5
           0.270740 24.618 0.681801 -119.5 0.678915 -23.24
556.000000 0.870831 -27.32 0.405509 49.561 0.278584 24.122
           0.405509 49.561 0.606069 -22.56 0.684430 -120.7
           0.278584 24.122 0.684430 -120.7 0.673099 -25.46
558.000000 0.867299 -27.50 0.407519 48.932 0.286529 23.585
           0.407519 48.932 0.601818 -22.23 0.686974 -122.0
           0.286529 23.585 0.686974 -122.0 0.667171 -27.70
560.000000 0.863645 -27.67 0.409518 48.295 0.294571 23.009
           0.409518 48.295 0.597625 -21.89 0.689431 -123.3
           0.294571 23.009 0.689431 -123.3 0.661129 -29.95
562.000000 0.859868 -27.85 0.411506 47.650 0.302704 22.395
           0.411506 47.650 0.593492 -21.53 0.691799 -124.6
           0.302704 22.395 0.691799 -124.6 0.654972 -32.21
564.000000 0.855964 -28.03 0.413483 46.998 0.310924 21.746
           0.413483 46.998 0.589426 -21.17 0.694078 -125.9
           0.310924 21.746 0.694078 -125.9 0.648697 -34.47
566.000000 0.851932 -28.20 0.415448 46.338 0.319225 21.063
           0.415448 46.338 0.585431 -20.78 0.696266 -127.2
           0.319225 21.063 0.696266 -127.2 0.642302 -36.75
568.000000 0.847770 -28.38 0.417401 45.671 0.327603 20.348
           0.417401 45.671 0.581510 -20.39 0.698362 -128.6
           0.327603 20.348 0.698362 -128.6 0.635785 -39.03
570.000000 0.843475 -28.56 0.419341 44.997 0.336053 19.602
           0.419341 44.997 0.577668 -19.98 0.700365 -129.9
           0.336053 19.602 0.700365 -129.9 0.629141 -41.33
572.000000 0.839046 -28.73 0.421268 44.316 0.344571 18.827
           0.421268 44.316 0.573908 -19.55 0.702275 -131.2
           0.344571 18.827 0.702275 -131.2 0.622370 -43.63
574.000000 0.834482 -28.91 0.423182 43.627 0.353152 18.025
           0.423182 43.627 0.570235 -19.12 0.704090 -132.6
           0.353152 18.025 0.704090 -132.6 0.615468 -45.94
576.000000 0.829779 -29.08 0.425083 42.930 0.361793 17.195
           0.425083 42.930 0.566652 -18.66 0.705811 -133.9
           0.361793 17.195 0.705811 -133.9 0.608430 -48.25
578.000000 0.824935 -29.26 0.426970 42.227 0.370488 16.341
           0.426970 42.227 0.563163 -18.20 0.707438 -135.3
           0.370488 16.341 0.707438 -135.3 0.601255 -50.58
580.000000 0.819950 -29.43 0.428844 41.516 0.379233 15.462
           0.428844 41.516 0.559771 -17.72 0.708969 -136.6
           0.379233 15.462 0.708969 -136.6 0.593939 -52.91
582.000000 0.814821 -29.60 0.430703 40.798 0.388025 14.560
           0.430703 40.798 0.556479 -17.23 0.710405 -138.0
           0.388025 14.560 0.710405 -138.0 0.586477 -55.24
584.000000 0.809545 -29.77 0.432549 40.073 0.396859 13.635
           0.432549 40.073 0.553290 -16.72 0.711746 -139.3
           0.396859 13.635 0.711746 -139.3 0.578866 -57.58
586.000000 0.804122 -29.93 0.434380 39.340 0.405732 12.689
           0.434380 39.340 0.550208 -16.21 0.712991 -140.7
           0.405732 12.689 0.712991 -140.7 0.571101 -59.93
588.000000 0.798549 -30.10 0.436197 38.600 0.414640 11.723
           0.436197 38.600 0.547235 -15.68 0.714142 -142.1
           0.414640 11.723 0.714142 -142.1 0.563179 -62.28
590.000000 0.792825 -30.26 0.437999 37.852 0.423579 10.736
           0.437999 37.852 0.544373 -15.13 0.715198 -143.5
           0.423579 10.736 0.715198 -143.5 0.555094 -64.64
592.000000 0.786947 -30.41 0.439787 37.097 0.432544 9.7309
           0.439787 37.097 0.541627 -14.58 0.716158 -144.9
           0.432544 9.7309 0.716158 -144.9 0.546841 -67.00
594.000000 0.780913 -30.57 0.441559 36.334 0.441534 8.7068
           0.441559 36.334 0.538999 -14.01 0.717024 -146.3
           0.441534 8.7068 0.717024 -146.3 0.538416 -69.37
596.000000 0.774723 -30.71 0.443316 35.563 0.450542 7.6648
           0.443316 35.563 0.536491 -13.43 0.717796 -147.7
           0.450542 7.6648 0.717796 -147.7 0.529813 -71.75
598.000000 0.768375 -30.86 0.445057 34.784 0.459567 6.6054
           0.445057 34.784 0.534107 -12.83 0.718473 -149.1
           0.459567 6.6054 0.718473 -149.1 0.521028 -74.13
600.000000 0.761866 -30.99 0.446782 33.997 0.468604 5.5290
           0.446782 33.997 0.531849 -12.23 0.719055 -150.5
           0.468604 5.5290 0.719055 -150.5 0.512053 -76.51
602.000000 0.755196 -31.13 0.448490 33.202 0.477649 4.4363
           0.448490 33.202 0.529720 -11.61 0.719543 -151.9
           0.477649 4.4363 0.719543 -151.9 0.502885 -78.90
604.000000 0.748363 -31.25 0.450181 32.398 0.486699 3.3274
           0.450181 32.398 0.527724 -10.98 0.719936 -153.4
           0.486699 3.3274 0.719936 -153.4 0.493516 -81.30
606.000000 0.741366 -31.37 0.451854 31.586 0.495749 2.2029
           0.451854 31.586 0.525863 -10.34 0.720234 -154.8
           0.495749 2.2029 0.720234 -154.8 0.483940 -83.70
608.000000 0.734205 -31.48 0.453507 30.765 0.504796 1.0630
           0.453507 30.765 0.524143 -9.692 0.720436 -156.2
           0.504796 1.0630 0.720436 -156.2 0.474152 -86.11
610.000000 0.726878 -31.57 0.455141 29.935 0.513836 -0.092
           0.455141 29.935 0.522565 -9.030 0.720543 -157.7
           0.513836 -0.092 0.720543 -157.7 0.464146 -88.52
612.000000 0.719385 -31.66 0.456753 29.095 0.522863 -1.262
           0.456753 29.095 0.521135 -8.357 0.720553 -159.1
           0.522863 -1.262 0.720553 -159.1 0.453914 -90.95
614.000000 0.711726 -31.74 0.458342 28.246 0.531875 -2.447
           0.458342 28.246 0.519856 -7.674 0.720465 -160.6
           0.531875 -2.447 0.720465 -160.6 0.443451 -93.38
616.000000 0.703902 -31.81 0.459908 27.388 0.540865 -3.646
           0.459908 27.388 0.518734 -6.980 0.720278 -162.1
           0.540865 -3.646 0.720278 -162.1 0.432750 -95.82
618.000000 0.695913 -31.86 0.461447 26.519 0.549829 -4.859
           0.461447 26.519 0.517773 -6.276 0.719990 -163.5
           0.549829 -4.859 0.719990 -163.5 0.421804 -98.27
620.000000 0.687762 -31.90 0.462958 25.640 0.558763 -6.087
           0.462958 25.640 0.516980 -5.563 0.719601 -165.0
           0.558763 -6.087 0.719601 -165.0 0.410608 -100.7
622.000000 0.679449 -31.92 0.464439 24.751 0.567659 -7.328
           0.464439 24.751 0.516359 -4.840 0.719107 -166.5
           0.567659 -7.328 0.719107 -166.5 0.399155 -103.2
624.000000 0.670977 -31.92 0.465888 23.850 0.576513 -8.584
           0.465888 23.850 0.515918 -4.109 0.718508 -168.0
           0.576513 -8.584 0.718508 -168.0 0.387439 -105.7
626.000000 0.662351 -31.90 0.467301 22.939 0.585319 -9.854
           0.467301 22.939 0.515662 -3.369 0.717799 -169.5
           0.585319 -9.854 0.717799 -169.5 0.375454 -108.2
!< P1 F=626.0 Eeff=(undefined: nd) Z0=(undefined: nd) R=0.0 C=0.0 
!< P2 F=626.0 Eeff=(undefined: nd) Z0=(undefined: nd) R=0.0 C=0.0 