! Touchstone file exported from HFSS 2019.1.0
!        File:           D:/pgrimes/HFSS/SMA/ASIAA-200_CPW_25Ohm_ETongTuner_3Harmonics.aedt
!        Generated:      10:53:12 AM  Jun 10, 2019
!        Design:         ASIAA-200_CPW_offsetFeed
!        Project:        ASIAA-200_CPW_25Ohm_ETongTuner_3Harmonics
!        Setup:          Setup1
!        Solution:       IFSweep
!
! Variables:
!        Area = 2.01061929829747
!        BackshortLength = 13.5mil
!        CPWGap = 4um
!        CPWLength = 32um
!        CPWSidegap = 2um
!        CPWWidth = 10um
!        CPWlineEndgap = 3um
!        CPWlineSidegap = 2um
!        CPWlineWidth = 8um
!        CPWlinelength = 14um
!        Cap = 0fF
!        CenterGap = 2um
!        ChipHeight = 5mil
!        ChipLength = 6mm
!        ChipSlotDepth = 5mil
!        ChipSlotExtDepth = 7.5mil
!        ChipSlotExtLen = 1.75mm
!        ChipSlotExtLength = 1.75mm
!        ChipSlotExtWidth = 16mil
!        ChipSlotFrontDepth = 5mil
!        ChipSlotFrontLength = 2mm
!        ChipSlotFrontWidth = 16mil
!        ChipSlotLength = 6mm
!        ChipSlotWidth = 20mil
!        ChipWidth = 0.5mm
!        FeedExtLength = 30um
!        FeedExtWidth = 10um
!        FeedLength = 100um
!        FeedWidth = 5um
!        GroundThick = 0.2um
!        InputLength = 400um
!        JunctionSize = 1.6um
!        Line2Length = 9um
!        PadWidth = 6um
!        Rj = 13.4286983233787ohm
!        Rn = 13.4286983233787ohm
!        RnA = 27ohm
!        Scap = 0fF
!        SiOlength = 200um
!        SiOstart = 50um
!        SiOthick = 0.25um
!        SiOwidth = 100um
!        WaveGuideHeight = 11mil
!        WaveguideWidth = 44mil
!        WiringContactLength = 1.05mm
!        WiringContactWidth = 250um
!        WiringProbeLength = 179um
!        WiringProbeTipLength = 20um
!        WiringProbeTipWidth = 30um
!        WiringProbeWidth = 250um
!        WiringSect1Length = 200um
!        WiringSect1Width = 30um
!        WiringSect2Length = 250um
!        WiringSect2Width = 250um
!        WiringSect3Length = 164um
!        WiringSect3Width = 30um
!        WiringSect4Length = 211um
!        WiringSect4Width = 250um
!        WiringSect5Length = 288um
!        WiringSect5Width = 30um
!        WiringThick = 0.6um
!        Xj = 0
!        Zchar = 24ohm
!
# GHZ S DB R 50.000000
! Modal data exported
! Port[1] = IFPort:1
! Port[2] = J1:1
! Port[3] = J2:1
! Port[4] = J3:1
! Port[5] = WavePort2:1
! Port[6] = WavePort2:2
! Port[7] = WavePort2:3
0.1              -5.90029788322384 -0.808017874663063 -6.0614531061118 -0.65465613951267 -6.06145327300927 -0.66263820902722 -6.06145326541619 -0.6632852075906 
                -75.777078404552 89.8901344983399 -166.42845500599 89.8311556790197 -103.666929184843 -90.0944028796303 
                -6.06145310611176 -0.654656139492121 -6.06093372878269 0.143584235402852 -5.98038300208162 179.810256267097 -5.98038297310922 179.809561770063 
                -75.6960601362934 -90.38032737336  -166.34740509203 -90.3781265335985 -103.585911447651 89.6340909683868 
                -6.06145327300924 -0.662638209037839 -5.9803830020816 179.810256267068 -6.06092626749236 0.144089844701031 -5.98039013346494 179.817897446441 
                -75.6960603685873 -90.3882376260245 -166.347405390055 -90.3859882902599 -103.585911691707 89.6261934939716 
                -6.06145326541615 -0.663285207662467 -5.98038297310924 179.809561770033 -5.98039013346494 179.817897446393 -6.06092630456925 0.142747907085339 
                -75.6960603703013 -90.3888746716764 -166.347405428723 -90.3866855974176 -103.585911689627 89.6255524258517 
                -75.7770784045529 89.8901344983313 -75.6960601362942 -90.3803273734029 -75.696060368588 -90.3882376260432 -75.6960603703021 -90.3888746716465 
                -4.66057451036783E-07 179.949680018368 -166.429675377412 89.9427919105229 -110.712744708338 -90.0760357011768 
                -166.428455005991 89.8311556789947 -166.347405092031 -90.3781265336318 -166.347405390056 -90.3859882903414 -166.347405428724 -90.3866855973946 
                -166.429675377412 89.9427919105229 -7.76939353256127E-11 179.97510465927  -183.115685467448 89.9864325866498 
                -103.666929184844 -90.0944028796394 -103.585911447653 89.6340909684    -103.585911691708 89.6261934939471 -103.585911689628 89.6255524258577 
                -110.712744708338 -90.0760357011768 -183.115685467448 89.9864325866498 -7.97266411956719E-10 179.983398605705 
! Gamma         !               6.45654311365417E-06 3.24626865522097 0                0                0                0                0                0                
!               2811.01626735384 0                5622.03370667686 0                8433.05088556225 0                
! Port Impedance50               0                50               0                50               0                50               0                
!               50               0                50               0                50               0                

0.2              -5.9018508776311 -1.61607205690472 -6.06091891365702 -1.30934313872209 -6.06091958517105 -1.32530396548845 -6.0609195557148 -1.3265962355574 
                -69.7679543884041 89.5501884441368 -160.419247298291 89.4617561295548 -97.6578179577407 -90.4185977212691 
                -6.060918913657  -1.30934313872811 -6.05998230504376 0.287140783965135 -5.98111713696044 179.620508256475 -5.98111702205425 179.619120977555 
                -69.6888461100463 -90.9827738624739 -160.340175655597 -90.9465665737596 -97.5787083485751 89.0462990601612 
                -6.060919585171  -1.32530396550399 -5.98111713696042 179.620508256471 -6.05995249192034 0.288146195075148 -5.98114566587125 179.63578981929  
                -69.6888514831073 -90.9985243186277 -160.340181847363 -90.9622110928816 -97.5787138225676 89.0305750024875 
                -6.06091955571482 -1.32659623555199 -5.98111702205419 179.61912097757  -5.98114566587134 179.635789819323 -6.05995264331562 0.285465787055451 
                -69.6888517837485 -90.9997924295034 -160.340181705063 -90.963601984989 -97.5787140938756 89.0292986319402 
                -69.7679543884047 89.5501884441472 -69.6888461100469 -90.9827738624596 -69.688851483108 -90.9985243186299 -69.6888517837492 -90.9997924294849 
                -1.87365059370757E-06 179.89935977168  -160.408977845328 89.8864516389509 -104.691916845924 -90.152455747845 
                -160.419247298292 89.4617561295541 -160.340175655597 -90.9465665737796 -160.340181847363 -90.9622110928742 -160.340181705064 -90.9636019849998 
                -160.408977845328 89.8864516389509 -7.76958639805458E-11 179.950209310316 -177.095109386091 89.9708088230827 
                -97.6578179577405 -90.4185977212763 -97.5787083485748 89.0462990601494 -97.5787138225674 89.0305750024865 -97.5787140938752 89.0292986319282 
                -104.691916845924 -90.152455747845 -177.095109386091 89.9708088230827 -3.19585162065059E-09 179.966797208681 
! Gamma         !               6.42954806475687E-06 6.49253627267813 0                0                0                0                0                0                
!               2811.01392341427 0                5622.03253470769 0                8433.05010424954 0                
! Port Impedance50               0                50               0                50               0                50               0                
!               50               0                50               0                50               0                

0.3              -5.90444896581474 -2.42410642407414 -6.06001864651541 -1.96418994910347 -6.0600201479312 -1.98813040542561 -6.0600200795746 -1.99006837681965 
                -66.233783321297 89.6554181287143 -156.885484026524 89.5345356197073 -94.1236463075287 -90.2978791216519 
                -6.06001864651541 -1.96418994911321 -6.05840810376011 0.430591801145238 -5.98232982955746 179.430734245195 -5.9823295686978 179.428653709921 
                -66.1564952605636 -91.1543110347413 -156.80789140341 -91.0919286194799 -94.0463637752212 88.8892521355211 
                -6.0600201479312 -1.98813040541969 -5.98232982955745 179.430734245187 -6.05834102537113 0.432088817019709 -5.98239401412613 179.453661323487 
                -66.1564968706896 -91.1780256886182 -156.807893351816 -91.1154971533252 -94.0463654852349 88.8655759248376 
                -6.06002007957462 -1.99006837681921 -5.98232956869775 179.428653709912 -5.98239401412621 179.453661323522 -6.05834136028136 0.428069073507051 
                -66.1564968574578 -91.1799331412308 -156.807892813479 -91.1175855322323 -94.0463654396001 88.8636563764753 
                -66.2337833212971 89.655418128714  -66.1564952605637 -91.1543110347533 -66.1564968706897 -91.1780256886172 -66.156496857458 -91.1799331412247 
                -4.20083963642418E-06 179.849039538206 -156.887158743112 89.8301723649186 -101.170091860157 -90.2282187079438 
                -156.885484026524 89.5345356197028 -156.80789140341 -91.0919286194748 -156.807893351816 -91.1154971533198 -156.807892813479 -91.117585532242 
                -156.887158743112 89.8301723649186 -7.76997212904121E-11 179.925313944913 -173.573277401737 89.955572002082  
                -94.1236463075289 -90.2978791216541 -94.0463637752214 88.8892521355073 -94.0463654852352 88.865575924852  -94.0463654396003 88.8636563764567 
                -101.170091860157 -90.2282187079438 -173.573277401737 89.9555720020819 -7.16289906194064E-09 179.950195807085 
! Gamma         !               6.39871461123918E-06 9.73880508331317 0                0                0                0                0                0                
!               2811.01001684396 0                5622.03058142518 0                8433.04880206152 0                
! Port Impedance50               0                50               0                50               0                50               0                
!               50               0                50               0                50               0                

0.4              -5.9080837278585 -3.23213073295096 -6.05876370447389 -2.61925243761809 -6.05876636926715 -2.6511728237895 -6.05876624679074 -2.65375663918542 
                -63.7205714614873 89.5580103898066 -154.372464460395 89.4019500096705 -91.6104501686844 -90.3797459576229 
                -6.0587637044738 -2.61925243762736 -6.05619920414583 0.573873809171699 -5.98403358616802 179.240939255861 -5.9840331211502 179.238165268152 
                -63.6468865752062 -91.5239529250118 -154.298355216231 -91.4367527913265 -91.5367729749742 88.5341271206458 
                -6.05876636926716 -2.65117282380383 -5.98403358616802 179.240939255855 -6.05608002143392 0.57584976297761 -5.98414771069005 179.271518825027 
                -63.6468921092039 -91.5555977514785 -154.298361701483 -91.4682063066897 -91.5367787218539 88.5025332238215 
                -6.05876624679073 -2.65375663918835 -5.98403312115022 179.238165268178 -5.98414771069006 179.271518825032 -6.05608061407923 0.570490411808732 
                -63.6468922481961 -91.5581425337634 -154.298360866352 -91.4709912130933 -91.5367787943846 88.4999723999753 
                -63.7205714614875 89.5580103898047 -63.6468865752063 -91.5239529250011 -63.6468921092039 -91.5555977514785 -63.646892248196 -91.5581425337579 
                -7.44557774079024E-06 179.798718811727 -154.38831106561 89.7739304501182 -98.6711340552302 -90.3037671498202 
                -154.372464460395 89.4019500096714 -154.298355216231 -91.4367527913278 -154.298361701483 -91.4682063066943 -154.298360866352 -91.4709912130788 
                -154.38831106561 89.7739304501182 -7.77016499453452E-11 179.900418554837 -171.074515571295 89.9404260733431 
                -91.6104501686841 -90.379745957625 -91.5367729749739 88.5341271206506 -91.5367787218535 88.5025332238159 -91.5367787943842 88.4999723999839 
                -98.6711340552302 -90.3037671498202 -171.074515571295 89.9404260733431 -1.2695111702363E-08 179.933594397795 
! Gamma         !               6.37907203537383E-06 12.9850752590322 0                0                0                0                0                0                
!               2811.00454763642 0                5622.02784682853 0                8433.04697899797 0                
! Port Impedance50               0                50               0                50               0                50               0                
!               50               0                50               0                50               0                

0.5              -5.91276042965874 -4.04017255599377 -6.05715160223446 -3.2745714893769 -6.05715576706108 -3.31447196253836 -6.0571555759446 -3.31770170318538 
                -61.7798995615246 89.4381602629269 -152.432149425818 89.2452259681795 -89.6697923361541 -90.4840063397951 
                -6.05715160223443 -3.27457148937545 -6.05335869855907 0.716903930725051 -5.98622648020506 179.051144148061 -5.9862257535725 179.047676555028 
                -61.7104239986933 -91.9121869184656 -152.361951462526 -91.8007913449263 -89.6003299260428 88.1604366480288 
                -6.05715576706106 -3.31447196254026 -5.98622648020515 179.051144148076 -6.05317265032566 0.719342058072093 -5.98640484674406 179.089385448762 
                -61.7104312390542 -91.9517323131279 -152.361959941657 -91.8400960644267 -89.6003374806269 88.1209550290757 
                -6.05715557594457 -3.31770170318809 -5.98622575357252 179.047676555021 -5.98640484674409 179.089385448766 -6.05317357689396 0.712642955383378 
                -61.7104313701472 -91.9549125853641 -152.361958631528 -91.8435766504084 -89.6003375125174 88.1177546764287 
                -61.7798995615248 89.4381602629255 -61.7104239986935 -91.9121869184633 -61.7104312390545 -91.9517323131249 -61.7104313701475 -91.9549125853708 
                -1.16521785435553E-05 179.748397549709 -152.450008571362 89.7173448589052 -96.732679316704 -90.3800366835915 
                -152.432149425818 89.2452259681767 -152.361951462526 -91.8007913449312 -152.361959941657 -91.8400960644306 -152.361958631527 -91.8435766504107 
                -152.450008571362 89.7173448589052 -7.77122575474774E-11 179.875523131863 -169.1363341967  89.9254152848654 
                -89.6697923361539 -90.4840063397941 -89.6003299260427 88.1604366480258 -89.6003374806268 88.1209550290769 -89.6003375125173 88.1177546764366 
                -96.732679316704 -90.3800366835915 -169.1363341967  89.9254152848654 -1.98644891267079E-08 179.916992978445 
! Gamma         !               6.38193783952548E-06 16.231347155439  0                0                0                0                0                0                
!               2810.9975157825  0                5622.0243309166  0                8433.04463505854 0                
! Port Impedance50               0                50               0                50               0                50               0                
!               50               0                50               0                50               0                

0.6              -5.91848488644581 -4.84822310259695 -6.0551803199735 -3.93022503732913 -6.05518632373184 -3.97810561883952 -6.05518604983915 -3.98198132735658 
                -60.195300094904 89.3504588156897 -150.848087507571 89.1205672485669 -88.0852049664886 -90.5561284939747 
                -6.05518031997357 -3.93022503732602 -6.04988895048683 0.859635219700884 -5.98890751874484 178.861333532037 -5.98890647334052 178.857172200418 
                -60.1306432679104 -92.2682765148076 -150.782232839955 -92.1330856452788 -88.0205702243036 87.8188854428936 
                -6.05518632373195 -3.97810561883235 -5.98890751874484 178.861333532035 -6.04962135916665 0.862514843177954 -5.98916445552034 178.907248225579 
                -60.1306498352993 -92.3157259429238 -150.78224060131 -92.1802456885498 -88.0205771952436 87.7715125721991 
                -6.05518604983917 -3.98198132735743 -5.98890647334054 178.857172200408 -5.98916445552034 178.907248225577 -6.04962269665538 0.854475926164039 
                -60.1306497841334 -92.3195419204688 -150.782238629369 -92.1844219790154 -88.0205770139033 87.7676724917673 
                -60.1953000949044 89.3504588156919 -60.1306432679107 -92.2682765148144 -60.1306498352997 -92.31572594292  -60.1306497841339 -92.3195419204658 
                -1.68186503152411E-05 179.698075841669 -150.866289266356 89.6606012006873 -95.1488121097998 -90.4566359060004 
                -150.848087507571 89.1205672485682 -150.782232839955 -92.1330856452785 -150.78224060131 -92.180245688552 -150.782238629369 -92.1844219790136 
                -150.866289266356 89.6606012006873 -7.77161148573436E-11 179.850627667767 -167.552723930236 89.9104681931051 
                -88.0852049664888 -90.556128493972 -88.0205702243038 87.8188854428904 -88.0205771952439 87.7715125722109 -88.0205770139034 87.7676724917612 
                -95.1488121097998 -90.4566359060004 -167.552723930236 89.9104681931051 -2.86677294817729E-08 179.900391546884 
! Gamma         !               6.40977497179084E-06 19.4776211498709 0                0                0                0                0                0                
!               2810.98892127049 0                5622.02003368792 0                8433.0417702428  0                
! Port Impedance50               0                50               0                50               0                50               0                
!               50               0                50               0                50               0                

0.7              -5.9252608914255 -5.65626787086245 -6.05285082005178 -4.58629541432769 -6.05285900104672 -4.64215592889445 -6.05285863007516 -4.64667760043988 
                -58.8508640089747 89.2734250882403 -149.504261492367 89.0069936185709 -86.7407843706246 -90.6176086638274 
                -6.05285082005179 -4.58629541433428 -6.04578929461458 1.00202224805495 -5.99207898200331 178.671489553595 -5.99207756027648 178.666634378216 
                -58.7919888900362 -92.6144533137932 -149.44365892067 -92.4557069864111 -86.6819413257823 87.4872340309587 
                -6.05285900104661 -4.64215592889205 -5.99207898200328 178.671489553603 -6.04542557459324 1.00531893139751 -5.99242884707322 178.725091888028 
                -58.7919953108603 -92.6698184927951 -149.443666589578 -92.5107359030468 -86.6819482647021 87.4319580252548 
                -6.05285863007512 -4.64667760043783 -5.99207756027651 178.666634378217 -5.99242884707324 178.725091888029 -6.04542739934918 0.99594023411101 
                -58.7919950838754 -92.6742709036167 -149.443663844519 -92.5156081467713 -86.6819478687744 87.4274775333531 
                -58.8508640089743 89.2734250882408 -58.7919888900358 -92.6144533137936 -58.7919953108601 -92.6698184927903 -58.7919950838751 -92.6742709036218 
                -2.29202019125198E-05 179.647753570791 -149.527255450109 89.6039114816455 -93.8096204417074 -90.5330986367095 
                -149.504261492367 89.0069936185671 -149.44365892067 -92.4557069864184 -149.443666589578 -92.5107359030495 -149.443663844519 -92.5156081467733 
                -149.527255450109 89.6039114816455 -7.7721900822143E-11 179.825732154325 -166.213801751044 89.8955178102539 
                -86.7407843706245 -90.6176086638277 -86.6819413257823 87.4872340309578 -86.681948264702 87.4319580252516 -86.6819478687744 87.4274775333544 
                -93.8096204417074 -90.5330986367094 -166.213801751044 89.8955178102539 -3.90644978474009E-08 179.883790100624 
! Gamma         !               6.45315411504161E-06 22.723897621378  0                0                0                0                0                0                
!               2810.97876408604 0                5622.0149551407  0                8433.03838455021 0                
! Port Impedance50               0                50               0                50               0                50               0                
!               50               0                50               0                50               0                

0.8              -5.93309159715451 -6.4642991979877 -6.0501655127544 -5.24285666998475 -6.05017620407008 -5.30669666154355 -6.05017572067345 -5.31186422482674 
                -57.6806529755619 89.1774440648565 -148.334653334026 88.8746724666855 -85.5705961772379 -90.6980466374075 
                -6.05016551275446 -5.24285666998052 -6.04105785948581 1.14400875717307 -5.99574470702787 178.481604193222 -5.99574284997404 178.476055115149 
                -57.6287597165284 -92.9790769114648 -148.280535068005 -92.7968804458661 -85.5187442600782 87.1371313645348 
                -6.05017620407016 -5.30669666155284 -5.99574470702788 178.481604193207 -6.04058352548424 1.1476944867693  -5.99620188584339 178.542911177039 
                -57.6287686227573 -93.0423611063755 -148.280545685026 -92.8597820825757 -85.5187538502744 87.0739489007978 
                -6.05017572067352 -5.31186422481797 -5.99574284997407 178.476055115148 -5.99620188584339 178.542911177046 -6.04058591092047 1.13697617632387 
                -57.6287683582813 -93.0474501392944 -148.280542112741 -92.8653503058083 -85.5187533633769 87.0688278260052 
                -57.6806529755622 89.177444064855  -57.6287597165287 -92.9790769114688 -57.6287686227575 -93.0423611063774 -57.6287683582816 -93.0474501392957 
                -2.99442414428526E-05 179.597430403497 -148.367283854348 89.5473205586953 -92.6494423288358 -90.6093286309337 
                -148.334653334026 88.8746724666849 -148.280535068005 -92.7968804458726 -148.280545685026 -92.8597820825731 -148.280542112741 -92.8653503058112 
                -148.367283854348 89.5473205586953 -7.77354014066749E-11 179.800836583312 -165.053983932439 89.8805476701167 
                -85.5705961772382 -90.6980466374093 -85.5187442600786 87.1371313645352 -85.5187538502747 87.073948900798  -85.5187533633772 87.0688278260077 
                -92.6494423288358 -90.6093286309337 -165.053983932439 89.8805476701167 -5.10343610945053E-08 179.867188636825 
! Gamma         !               6.48979206315457E-06 25.9701769484081 0                0                0                0                0                0                
!               2810.96704421224 0                5622.00909527281 0                8433.03447798016 0                
! Port Impedance50               0                50               0                50               0                50               0                
!               50               0                50               0                50               0                

0.9              -5.9419807306648 -7.27231682912038 -6.047126976872  -5.89997442185843 -6.04714049999604 -5.9717930553386 -6.04713988653303 -5.97760634820545 
                -56.6446178394295 89.0450606132104 -147.299190862117 88.7057079745726 -84.534592488297 -90.8148731089088 
                -6.047126976872  -5.8999744218546 -6.03569297534519 1.28552849633252 -5.99990874372063 178.291678700512 -5.99990638938924 178.285435730627 
                -56.6009534519285 -93.3778246232111 -147.252858540441 -93.1721796530402 -84.4909774609621 86.7529135887926 
                -6.04714049999613 -5.97179305533548 -5.9999087437206 178.291678700507 -6.03509364719134 1.2895719007113  -6.00048764225019 178.360710278969 
                -56.6009681101631 -93.4490177391641 -147.252875874018 -93.2429425465986 -84.4909930275864 86.6818348693017 
                -6.04713988653291 -5.97760634821443 -5.9999063893892 178.285435730621 -6.00048764225015 178.360710278973 -6.03509666045635 1.27751432367706 
                -56.6009679865137 -93.4547427274325 -147.252871440569 -93.2492064075302 -84.490992611261 86.6760738528816 
                -56.6446178394291 89.0450606132127 -56.600953451928 -93.377824623212 -56.6009681101627 -93.4490177391641 -56.6009679865133 -93.4547427274232 
                -3.79075291930032E-05 179.54710590149  -147.344037998407 89.490721746894  -91.625906076969 -90.6855678494365 
                -147.299190862118 88.7057079745715 -147.252858540441 -93.1721796530406 -147.252875874018 -93.2429425465983 -147.252871440569 -93.2492064075362 
                -147.344037998407 89.490721746894  -7.77363657341414E-11 179.775940946502 -164.030969845574 89.8655850299616 
                -84.534592488297 -90.8148731089102 -84.490977460962 86.7529135887877 -84.4909930275863 86.6818348693038 -84.4909926112609 86.6760738528829 
                -91.625906076969 -90.6855678494365 -164.030969845574 89.8655850299617 -6.46046270549903E-08 179.850587152479 
! Gamma         !               6.48503206093407E-06 29.2164595096958 0                0                0                0                0                0                
!               2810.95376162954 0                5622.00245408183 0                8433.0300505319  0                
! Port Impedance50               0                50               0                50               0                50               0                
!               50               0                50               0                50               0                

1                -5.95193317951083 -8.08032522277164 -6.04373737342823 -6.55770894833534 -6.04375402994203 -6.63750489996972 -6.04375326480304 -6.64396364140464 
                -55.7166372722804 88.8715003845768 -146.37177248204 88.4949257834049 -83.6066511834647 -90.9728403773317 
                -6.04373737342826 -6.55770894834216 -6.02969377851995 1.42650918401415 -6.00457477548793 178.101719930706 -6.0045718569917 178.094783176675 
                -55.6823579272929 -93.8139449245149 -146.334412624784 -93.5847816305659 -83.5724283994144 86.331344442891  
                -6.04375402994206 -6.63750489997565 -6.00457477548794 178.101719930704 -6.02895517991889 1.43087578512133 -6.00528981005735 178.178499165611 
                -55.6823811411076 -93.8930248657012 -146.33443991333 -93.6633805802085 -83.572452798093 86.2523918154414 
                -6.04375326480309 -6.64396364139773 -6.0045718569917 178.094783176683 -6.00528981005734 178.178499165613 -6.0289588773819 1.41747952042639 
                -55.6823813075663 -93.8993843624567 -146.334434576507 -93.6703393844598 -83.572452586398 86.2459922405401 
                -55.7166372722805 88.8715003845749 -55.6823579272929 -93.8139449245192 -55.6823811411076 -93.8930248656966 -55.6823813075663 -93.8993843624586 
                -4.685880504596E-05 179.496779639384 -146.42861426889 89.4339217995373 -90.7100882075629 -90.7622518270333 
                -146.37177248204 88.4949257834032 -146.334412624784 -93.5847816305755 -146.33443991333 -93.6633805802054 -146.334434576507 -93.6703393844553 
                -146.42861426889 89.4339217995373 -7.77498663186733E-11 179.751045235672 -163.115875944608 89.850681925726  
                -83.6066511834648 -90.9728403773325 -83.5724283994144 86.3313444428866 -83.5724527980929 86.252391815442  -83.5724525863981 86.2459922405433 
                -90.7100882075629 -90.7622518270333 -163.115875944608 89.850681925726  -7.9854578884076E-08 179.833985644597 
! Gamma         !               6.39303613427388E-06 32.4627456853556 0                0                0                0                0                0                
!               2810.93891631581 0                5621.995031565   0                8433.0251022046  0                
! Port Impedance50               0                50               0                50               0                50               0                
!               50               0                50               0                50               0                

1.1              -5.96296946446669 -8.88839517101402 -6.03999257936513 -7.21612521274276 -6.04001303350825 -7.30389970526433 -6.04001169787391 -7.31100360114767 
                -54.8906768653579 88.8072449459608 -145.539961054892 88.7252303730311 -82.781498307917 -91.0096549912381 
                -6.0399925793651 -7.21612521273903 -6.0230541506601 1.56695093332774 -6.00975129794726 177.911671252089 -6.00974752209655 177.904041017289 
                -54.8384027482995 -94.3213885713565 -145.492012224049 -94.0843288287803 -82.7283862971166 85.8376865728621 
                -6.04001303350824 -7.30389970526437 -6.00975129794731 177.911671252079 -6.02216175411371 1.57159867066729 -6.01061690584448 177.996221216394 
                -54.8381494361729 -94.4086793907371 -145.491806546479 -94.1710576178286 -82.7281332021724 85.7505376804053 
                -6.04001169787392 -7.311003601152  -6.00974752209654 177.904041017274 -6.01061690584447 177.996221216391 -6.02216678228764 1.55686244679588 
                -54.8384533476041 -94.4153477536146 -145.492100834292 -94.1783560317122 -82.7284364241991 85.743821293338  
                -54.8906768653579 88.8072449459596 -54.8384027482997 -94.3213885713607 -54.838149436173 -94.4086793907344 -54.8384533476043 -94.4153477536194 
                -5.66252665983499E-05 179.446450476065 -145.600349847661 89.3775894458264 -89.881227319281 -90.8378063933483 
                -145.539961054892 88.7252303730328 -145.492012224049 -94.0843288287817 -145.491806546479 -94.1710576178295 -145.492100834292 -94.1783560317116 
                -145.600349847661 89.3775894458264 -7.77595095933389E-11 179.726149442596 -162.288115783785 89.8356855407444 
                -82.781498307917 -91.0096549912374 -82.7283862971166 85.8376865728539 -82.7281332021724 85.7505376804077 -82.7284364241991 85.7438212933412 
                -89.881227319281 -90.8378063933483 -162.288115783785 89.8356855407444 -9.65019212935645E-08 179.81738410903  