! Touchstone file exported from HFSS 2019.1.0
!        File:           D:/pgrimes/HFSS/SMA/ASIAA-200_CPW_25Ohm_ETongTuner_3Harmonics.aedt
!        Generated:      10:52:51 AM  Jun 10, 2019
!        Design:         ASIAA-200_CPW_offsetFeed
!        Project:        ASIAA-200_CPW_25Ohm_ETongTuner_3Harmonics
!        Setup:          Setup1
!        Solution:       Sweep
!
! Variables:
!        Area = 2.01061929829747
!        BackshortLength = 13.5mil
!        CPWGap = 4um
!        CPWLength = 32um
!        CPWSidegap = 2um
!        CPWWidth = 10um
!        CPWlineEndgap = 3um
!        CPWlineSidegap = 2um
!        CPWlineWidth = 8um
!        CPWlinelength = 14um
!        Cap = 0fF
!        CenterGap = 2um
!        ChipHeight = 5mil
!        ChipLength = 6mm
!        ChipSlotDepth = 5mil
!        ChipSlotExtDepth = 7.5mil
!        ChipSlotExtLen = 1.75mm
!        ChipSlotExtLength = 1.75mm
!        ChipSlotExtWidth = 16mil
!        ChipSlotFrontDepth = 5mil
!        ChipSlotFrontLength = 2mm
!        ChipSlotFrontWidth = 16mil
!        ChipSlotLength = 6mm
!        ChipSlotWidth = 20mil
!        ChipWidth = 0.5mm
!        FeedExtLength = 30um
!        FeedExtWidth = 10um
!        FeedLength = 100um
!        FeedWidth = 5um
!        GroundThick = 0.2um
!        InputLength = 400um
!        JunctionSize = 1.6um
!        Line2Length = 9um
!        PadWidth = 6um
!        Rj = 13.4286983233787ohm
!        Rn = 13.4286983233787ohm
!        RnA = 27ohm
!        Scap = 0fF
!        SiOlength = 200um
!        SiOstart = 50um
!        SiOthick = 0.25um
!        SiOwidth = 100um
!        WaveGuideHeight = 11mil
!        WaveguideWidth = 44mil
!        WiringContactLength = 1.05mm
!        WiringContactWidth = 250um
!        WiringProbeLength = 179um
!        WiringProbeTipLength = 20um
!        WiringProbeTipWidth = 30um
!        WiringProbeWidth = 250um
!        WiringSect1Length = 200um
!        WiringSect1Width = 30um
!        WiringSect2Length = 250um
!        WiringSect2Width = 250um
!        WiringSect3Length = 164um
!        WiringSect3Width = 30um
!        WiringSect4Length = 211um
!        WiringSect4Width = 250um
!        WiringSect5Length = 288um
!        WiringSect5Width = 30um
!        WiringThick = 0.6um
!        Xj = 0
!        Zchar = 24ohm
!
# GHZ S DB R 50.000000
! Modal data exported
! Port[1] = IFPort:1
! Port[2] = J1:1
! Port[3] = J2:1
! Port[4] = J3:1
! Port[5] = WavePort2:1
! Port[6] = WavePort2:2
! Port[7] = WavePort2:3
150              -0.143141610009795 -29.1991506026269 -33.5023154608408 -10.1630422110365 -34.1828448269687 -23.3677158189359 -34.2408008626769 -24.9157925159358 
                -15.0569303811653 95.0773136751725 -102.516996460079 -42.7621570739078 -51.9052267197018 -36.2295971610117 
                -33.5023154608408 -10.1630422110365 -7.2547837770147 -61.7192035181576 -3.90121395604218 160.495305976141 -3.93658312625186 159.536652685453 
                -37.7869616040716 -159.439496531855 -120.142136302113 -95.2084427236034 -76.594641853088 64.7261720601549 
                -34.1828448269687 -23.3677158189358 -3.90121395604219 160.495305976141 -7.96107862897575 -53.6506958448267 -3.64218837863644 165.427160998862 
                -38.5443204358745 -174.732922092125 -120.808287948272 -108.343962481635 -77.3618705380858 50.2622006117997 
                -34.2408008626769 -24.9157925159358 -3.93658312625186 159.536652685453 -3.64218837863643 165.427160998862 -7.8721101737352 -55.0814732934758 
                -38.5876958568558 -177.455400990433 -120.926290114104 -111.75127292753 -77.3488513625468 46.213166103031  
                -15.0569303811653 95.0773136751726 -37.7869616040716 -159.439496531855 -38.5443204358745 -174.732922092125 -38.5876958568557 -177.455400990434 
                -0.139781019022693 39.5974676388995 -100.061899975252 174.462931270962 -47.6445010911164 -176.514673915377 
                -102.516996460079 -42.7621570739078 -120.142136302113 -95.2084427236035 -120.808287948272 -108.343962481635 -120.926290114104 -111.75127292753 
                -100.061899975252 174.462931270962 -9.20902836455744E-10 136.813318250898 -119.15953535309 53.6643325732024 
                -51.9052267197018 -36.2295971610117 -76.594641853088 64.7261720601544 -77.3618705380859 50.2622006118001 -77.3488513625468 46.213166103031  
                -47.6445010911164 -176.514673915377 -119.15953535309 53.6643325732024 -0.000102965490056101 153.627714464673 
! Gamma         !               6.51733958923174E-06 5087.51553787528 0                0                0                0                0                0                
!               0                1407.64251612223 4660.90045919111 0                7825.15669683102 0                
! Port Impedance50               0                50               0                50               0                50               0                
!               50               0                50               0                50               0                

151              -0.148920699627514 -34.9058239457209 -33.6678100998552 -13.934840406013 -34.3481823045947 -27.1540597848865 -34.4066496165617 -28.6937594367875 
                -15.0783781057446 90.4623338209599 -102.700040535679 -46.7590463716281 -52.0697108164235 -40.0599536247821 
                -33.6678100998552 -13.9348404060129 -7.25236292053242 -61.9834696278486 -3.90191903173735 160.293755134869 -3.93774135585539 159.329519641432 
                -36.1029841210219 -161.130247132742 -120.084241224894 -93.7995130002139 -74.7276117256559 65.777921618145  
                -34.3481823045947 -27.1540597848866 -3.90191903173735 160.293755134869 -7.95743523193845 -53.8490812114966 -3.64349494712116 165.255155381374 
                -36.8497890158928 -175.896936970213 -120.75136429261 -106.95583565608 -75.4831941998591 51.7918962454603 
                -34.4066496165617 -28.6937594367873 -3.93774135585538 159.329519641432 -3.64349494712115 165.255155381375 -7.8674262436492 -55.2853154008053 
                -36.8964461120184 -178.382748319921 -120.880607985094 -110.326561779658 -75.4954469433721 48.2508112391412 
                -15.0783781057446 90.4623338209599 -36.1029841210218 -161.130247132742 -36.849789015893 -175.896936970214 -36.8964461120183 -178.382748319921 
                -0.139340169647939 36.4704355326021 -99.0924160333052 173.274136611036 -47.1656309795475 -178.29350577211 
                -102.700040535679 -46.7590463716302 -120.084241224894 -93.7995130002162 -120.75136429261 -106.955835656082 -120.880607985094 -110.326561779654 
                -99.0924160333052 173.274136611037 -1.21509333107211E-05 136.424062119259 -119.129041679098 53.0796693411728 
                -52.0697108164236 -40.0599536247818 -74.727611725656 65.7779216181451 -75.4831941998592 51.7918962454618 -75.4954469433719 48.2508112391399 
                -47.1656309795475 -178.29350577211 -119.129041679098 53.0796693411727 -0.000111493572094004 153.429963569431 
! Gamma         !               6.51589070619804E-06 5124.12448949572 0                0                0                0                0                0                
!               0                1453.84789455834 4646.69526041585 0                7816.70397818944 0                
! Port Impedance50               0                50               0                50               0                50               0                
!               50               0                50               0                50               0                

152              -0.153054505664445 -40.4943693303151 -33.8287364639647 -17.7045839476016 -34.5096156133606 -30.9377213561303 -34.5685248116315 -32.4692584125552 
                -15.102903851204 85.7752535266822 -102.885498582055 -50.8085451150962 -52.2406203860332 -43.8693761217683 
                -33.8287364639648 -17.7045839476017 -7.25022244892406 -62.2456198237584 -3.90268147453277 160.090762181439 -3.93895985857602 159.120977500946 
                -34.5933044974952 -162.7917246652  -120.01838905336 -92.1451110747857 -73.1176833285731 66.2203638369033 
                -34.5096156133607 -30.9377213561304 -3.90268147453277 160.090762181439 -7.95382905376032 -54.0445663919054 -3.64494174592342 165.082146739791 
                -35.332205432156 -177.181449224537 -120.687244539099 -105.316932253762 -73.8631132873231 52.5487052851292 
                -34.5685248116314 -32.4692584125549 -3.93895985857601 159.120977500946 -3.64494174592342 165.082146739791 -7.86277209071499 -55.4862194081863 
                -35.3810885050135 -179.49136429621 -120.827966648486 -108.64991443412 -73.8887560472764 49.3715937555054 
                -15.102903851204 85.7752535266821 -34.593304497495 -162.791724665199 -35.3322054321562 -177.181449224538 -35.3810885050134 -179.491364296211 
                -0.1386597373394 33.0548257393439 -98.1743719592778 171.789276285461 -46.678195635208 179.829458632383 
                -102.885498582055 -50.8085451150981 -120.018389053361 -92.1451110747864 -120.687244539098 -105.316932253766 -120.827966648486 -108.649914434117 
                -98.1743719592779 171.789276285461 -2.08940237091949E-05 136.031959616649 -119.101966381871 52.4749101552318 
                -52.2406203860333 -43.8693761217676 -73.1176833285731 66.220363836903  -73.8631132873231 52.5487052851306 -73.8887560472764 49.371593755505  
                -46.678195635208 179.829458632383 -119.101966381871 52.4749101552317 -0.000121305525795681 153.231714363581 
! Gamma         !               6.51436324725301E-06 5160.77909030664 0                0                0                0                0                0                
!               0                1498.92243331659 4632.3516795018  0                7808.18585345243 0                
! Port Impedance50               0                50               0                50               0                50               0                
!               50               0                50               0                50               0                

153              -0.155753549134098 -45.9581745461975 -33.9843316538386 -21.4776888870105 -34.6663122789582 -34.7241761798485 -34.7256030167982 -36.2477947527656 
                -15.1293305697097 81.0195173155111 -103.07298429265 -54.9129798822677 -52.4166301712542 -47.6594363198851 
                -33.9843316538386 -21.4776888870106 -7.24837230311232 -62.5053180491779 -3.90352668057187 159.886180640225 -3.94026390713683 158.910880261638 
                -33.2146767118135 -164.487440388658 -119.938953119401 -90.2156682949948 -71.6956638215655 66.2577856847937 
                -34.6663122789583 -34.7241761798487 -3.90352668057188 159.886180640225 -7.95023397887785 -54.2368666178027 -3.64655558881812 164.908057069488 
                -33.9473777719185 -178.600517974278 -120.610129941916 -103.397207978044 -72.4331007069122 52.800995774413  
                -34.7256030167981 -36.2477947527651 -3.94026390713682 158.910880261638 -3.64655558881812 164.908057069488 -7.85812052246407 -55.683911905303 
                -33.9978014022626 179.225098854382 -120.762673898259 -106.689817001011 -72.4662587429538 49.8954111850974 
                -15.1293305697097 81.0195173155109 -33.2146767118135 -164.487440388658 -33.9473777719186 -178.600517974278 -33.9978014022626 179.225098854382 
                -0.137935535914574 29.3447446381959 -97.3003801884841 170.046193497928 -46.182626424415 177.847482646719 
                -103.07298429265 -54.9129798822674 -119.938953119402 -90.2156682949926 -120.610129941916 -103.397207978043 -120.762673898258 -106.689817001014 
                -97.3003801884841 170.046193497928 -2.68017526933427E-05 135.636950536313 -119.078567083916 51.8471269193611 
                -52.4166301712542 -47.6594363198841 -71.6956638215655 66.2577856847934 -72.4331007069122 52.8009957744148 -72.4662587429538 49.8954111850964 
                -46.182626424415 177.847482646719 -119.078567083916 51.8471269193612 -0.000132576731537198 153.032961602977 
! Gamma         !               6.5127565713124E-06 5197.47934219428 0                0                0                0                0                0                
!               0                1542.96524100802 4617.86842696107 0                7799.60210832549 0                
! Port Impedance50               0                50               0                50               0                50               0                
!               50               0                50               0                50               0                

154              -0.15721995143835 -51.2924500552349 -34.1339771214855 -25.2606286286592 -34.8175856523389 -38.5200014776053 -34.8772057605533 -40.0359712361064 
                -15.1566391665929 76.1962824070492 -103.262195035761 -59.0752404802778 -52.5965248235261 -51.433095429013 
                -34.1339771214855 -25.2606286286594 -7.24681833692127 -62.7621851704202 -3.90448496898259 159.679864989971 -3.94168369594562 158.69908292655  
                -31.9379334692639 -166.257998289352 -119.838251931739 -87.9847593256762 -70.4167332577297 65.9994687524977 
                -34.8175856523389 -38.5200014776054 -3.90448496898259 159.679864989971 -7.94661681363777 -54.425684468733 -3.64836751566215 164.732818469831 
                -32.6656726416467 179.834874885062 -120.51211863654 -101.169872448889 -71.1481947097913 52.6927667418977 
                -34.8772057605533 -40.0359712361057 -3.94168369594562 158.69908292655  -3.64836751566216 164.732818469831 -7.85343736582295 -55.8781089129568 
                -32.7171727118919 177.767810566395 -120.676879848832 -104.417490897984 -71.1857130067747 49.9964912661442 
                -15.1566391665929 76.1962824070492 -31.9379334692639 -166.257998289353 -32.6656726416468 179.834874885062 -32.7171727118919 177.767810566396 
                -0.137375535464185 25.3322716809638 -96.4646549027309 168.071541982546 -45.6795596262898 175.752948310987 
                -103.262195035761 -59.0752404802806 -119.83825193174 -87.984759325677 -120.51211863654 -101.169872448888 -120.676879848832 -104.417490897986 
                -96.464654902731 168.071541982545 -3.03812372460243E-05 135.238972325176 -119.059155076215 51.1930239583475 
                -52.5965248235261 -51.4330954290118 -70.4167332577297 65.9994687524982 -71.1481947097912 52.6927667418986 -71.1857130067746 49.9964912661432 
                -45.6795596262898 175.752948310987 -119.059155076215 51.1930239583475 -0.00014549665048585 152.833700137469 
! Gamma         !               6.51107006114618E-06 5234.22524064937 0                0                0                0                0                0                
!               0                1586.06226929756 4603.24418444139 0                7790.95252591523 0                
! Port Impedance50               0                50               0                50               0                50               0                
!               50               0                50               0                50               0                

155              -0.157642643861872 -56.4941061679506 -34.2772333313004 -29.0608123821096 -34.9629307880454 -42.332749249442 -35.0228355265714 -43.8413624209126 
                -15.1840109592383 71.3046675137898 -103.452938063621 -63.298708139159 -52.7792380923328 -55.1946078107474 
                -34.2772333313004 -29.0608123821096 -7.24556069542477 -63.0157950500901 -3.90559241489327 159.471675108484 -3.94325517173145 158.485445969309 
                -30.7426928533878 -168.131944743639 -119.706280638872 -85.4339918681133 -69.2504443874582 65.5077243307503 
                -34.9629307880455 -42.3327492494421 -3.90559241489327 159.471675108484 -7.94293580027248 -54.6107138021751 -3.65041331822939 164.556378628536 
                -31.4664630607779 178.115056600782 -120.382931459198 -98.6164441968621 -69.9776496852379 52.3066115813128 
                -35.0228355265713 -43.8413624209118 -3.94325517173145 158.485445969309 -3.65041331822938 164.556378628536 -7.8486800445921 -56.068520066242 
                -31.5187160995992 176.134788520883 -120.560257315723 -101.811981300521 -70.0177234278247 49.776016188426  
                -15.1840109592383 71.3046675137897 -30.7426928533877 -168.13194474364 -31.4664630607781 178.115056600781 -31.5187160995992 176.134788520884 
                -0.13719931653214 21.0079360224602 -95.662723471648 165.884045459174 -45.1698496361344 173.537562512271 
                -103.452938063621 -63.2987081391602 -119.706280638872 -85.4339918681114 -120.382931459198 -98.6164441968628 -120.560257315722 -101.811981300521 
                -95.6627234716481 165.884045459173 -3.20756133246728E-05 134.837960144938 -119.044108828651 50.5089022123098 
                -52.7792380923329 -55.1946078107459 -69.2504443874582 65.50772433075   -69.9776496852379 52.3066115813143 -70.0177234278246 49.7760161884251 
                -45.1698496361344 173.537562512271 -119.044108828651 50.5089022123097 -0.000160268062924422 152.633924944503 
! Gamma         !               6.50930312377786E-06 5271.01677477297 0                0                0                0                0                0                
!               0                1628.28861768759 4588.47760386731 0                7782.23688669674 0                
! Port Impedance50               0                50               0                50               0                50               0                
!               50               0                50               0                50               0                

156              -0.157193676726968 -61.561598688412 -34.4138742617519 -32.8864309514893 -35.1020600393045 -46.1707858129333 -35.1622114675056 -47.6723549662445 
                -15.210872833319 66.3420357311001 -103.645155490858 -67.5871591504263 -52.9638920587799 -58.9493792417609 
                -34.413874261752 -32.8864309514895 -7.24459174141326 -63.2656720493173 -3.90689171370366 159.261482741051 -3.94502089404576 158.269841823777 
                -29.6143877654133 -170.13103651548 -119.530694001329 -82.5598236723292 -68.1753659080047 64.8194608594562 
                -35.1020600393046 -46.1707858129335 -3.90689171370367 159.261482741051 -7.93913894765748 -54.7916465152536 -3.65273400142371 164.378708142273 
                -30.3350467958258 176.23091061689  -120.209901280866 -95.7337958409415 -68.8997474394452 51.6920232973401 
                -35.1622114675055 -47.6723549662436 -3.94502089404576 158.269841823777 -3.65273400142372 164.378708142273 -7.84379599448337 -56.2548555895565 
                -30.3878232235915 174.322023529127 -120.399936652983 -98.86740446277  -68.9412921345868 49.2954325967815 
                -15.210872833319 66.3420357310999 -29.6143877654132 -170.131036515482 -30.335046795826 176.230910616891 -30.3878232235915 174.322023529128 
                -0.137636728777327 16.3612191704935 -94.8912134816689 163.496727479269 -44.6545896915957 171.192566644063 
                -103.645155490859 -67.5871591504292 -119.530694001329 -82.5598236723316 -120.209901280866 -95.733795840939 -120.399936652983 -98.8674044627695 
                -94.8912134816689 163.496727479268 -3.22675331764295E-05 134.433846900666 -119.033890502028 49.7906311107877 
                -52.96389205878  -58.9493792417594 -68.1753659080047 64.8194608594559 -68.8997474394453 51.692023297341  -68.9412921345867 49.2954325967811 
                -44.6545896915957 171.192566644063 -119.033890502028 49.7906311107876 -0.000177105109979446 152.433631169864 
! Gamma         !               6.50745519086815E-06 5307.85392728507 0                0                0                0                0                0                
!               0                1669.71034498916 4573.56730654738 0                7773.45496848026 0                
! Port Impedance50               0                50               0                50               0                50               0                
!               50               0                50               0                50               0                

157              -0.156025577830581 -66.4947560930754 -34.5439214372811 -36.7462625722589 -35.2349380382113 -50.0430903979565 -35.2953045004853 -51.5379467079631 
                -15.2369425147488 61.3043257351261 -103.838948205426 -71.9446391104231 -53.1498358260513 -62.7037753020701 
                -34.5439214372812 -36.7462625722589 -7.24389347805323 -63.5112910244693 -3.90843300909513 159.049180508894 -3.94703085773918 158.052163912063 
                -28.5425030625379 -172.272913711675 -119.297265433892 -79.38183988068  -67.1760338247961 63.9568932484032 
                -35.2349380382114 -50.0430903979567 -3.90843300909513 159.049180508894 -7.93516224240498 -54.9681830937805 -3.65537609631946 164.199809989375 
                -29.2608312566918 174.173622733284 -119.978459955132 -92.5426844916664 -67.8987862054621 50.8794177637454 
                -35.2953045004852 -51.5379467079625 -3.94703085773917 158.052163912063 -3.65537609631946 164.199809989375 -7.83872098235531 -56.4368369750012 
                -29.3139667781027 172.324228756669 -120.180944326299 -95.6019331100469 -67.9411243086427 48.5931504861424 
                -15.2369425147488 61.3043257351261 -28.5425030625378 -172.272913711676 -29.2608312566919 174.173622733284 -29.3139667781027 172.32422875667  
                -0.13892524343254 11.3811224573823 -94.1476970373731 160.91851863506  -44.1351378888331 168.708975560782 
                -103.838948205426 -71.9446391104223 -119.297265433893 -79.3818398806797 -119.978459955132 -92.5426844916647 -120.180944326298 -95.6019331100483 
                -94.1476970373731 160.91851863506  -3.12843278483609E-05 134.026563239656 -119.029065617732 49.0336344119364 
                -53.1498358260513 -62.7037753020683 -67.1760338247961 63.956893248403  -67.8987862054621 50.8794177637463 -67.9411243086427 48.5931504861424 
                -44.1351378888331 168.708975560782 -119.029065617732 49.0336344119361 -0.000196229549167154 152.232814175022 
! Gamma         !               6.5055257190825E-06 5344.73667453618 0                0                0                0                0                0                
!               0                1710.3859105792  4558.51188224567 0                7764.60654637738 0                
! Port Impedance50               0                50               0                50               0                50               0                
!               50               0                50               0                50               0                

158              -0.154269659907535 -71.2945997233856 -34.6676767390909 -40.6494293957567 -35.3618152760241 -53.9590034618508 -35.4223709938428 -55.4474951798939 
                -15.2622711913346 56.1864436052287 -104.034598443418 -76.3753001225035 -53.3366826892318 -66.4648727971618 
                -34.667676739091 -40.6494293957571 -7.24343445208789 -63.7520812814046 -3.91027457485442 158.83469397668  -3.94934316713117 157.832338725964 
                -27.5194813014241 -174.572439483809 -118.991046702341 -75.9508897168889 -66.241126937295 62.9333460770648 
                -35.3618152760241 -53.9590034618505 -3.91027457485443 158.83469397668  -7.93092786634142 -55.1400480350876 -3.65839170416142 164.019731384861 
                -28.2362127380511 171.934717828878 -119.673354276763 -89.0960683459114 -66.9632575892889 49.8876880410894 
                -35.4223709938425 -55.4474951798931 -3.94934316713117 157.832338725964 -3.65839170416142 164.019731384861 -7.83337745748388 -56.6142123887264 
                -28.2895900500448 170.13544604603  -119.887405699783 -92.0668399114937 -67.0059524355358 47.693592231163  
                -15.2622711913345 56.1864436052285 -27.5194813014241 -174.57243948381 -28.2362127380512 171.934717828878 -28.2895900500448 170.13544604603  
                -0.141305374485419 6.05683318979649 -93.430576518061 158.155490482284 -43.6131455459469 166.077868747664 
                -104.034598443418 -76.3753001225083 -118.991046702342 -75.9508897168866 -119.673354276763 -89.0960683459092 -119.887405699782 -92.0668399114965 
                -93.4305765180611 158.155490482284 -2.94038944484239E-05 133.616037524141 -119.03032570674 48.232897720027  
                -53.3366826892318 -66.4648727971601 -66.241126937295 62.9333460770644 -66.9632575892889 49.8876880410906 -67.0059524355357 47.6935922311631 
                -43.6131455459469 166.077868747664 -119.03032570674 48.2328977200269 -0.000217864516708296 152.031469589174 
! Gamma         !               6.5035141904417E-06 5381.66498652178 0                0                0                0                0                0                
!               0                1750.36733382542 4543.30988821583 0                7755.69139276642 0                
! Port Impedance50               0                50               0                50               0                50               0                
!               50               0                50               0                50               0                

159              -0.152035170516459 -75.9631664460801 -34.785752512818 -44.6050938518172 -35.4832587574931 -57.9279141051263 -35.5439835129918 -59.4104049903193 
                -15.2872801857039 50.9827249976722 -104.2325900746  -80.8831913508798 -53.5243441143673 -70.2401455762942 
                -34.7857525128182 -44.6050938518167 -7.24316619175196 -63.9874363744822 -3.91248318557401 158.617997196399 -3.95202439669539 157.610341373312 
                -26.5400161294912 -177.042285357547 -118.598308976078 -72.3541520766988 -65.3623279859365 61.7566801002478 
                -35.4832587574932 -57.9279141051266 -3.91248318557401 158.617997196399 -7.92634263497998 -55.3070112433933 -3.6618381071587 163.838578044336 
                -27.2558554032675 169.506297163687 -119.280666534455 -85.4841296231975 -66.084700101639 48.7286134389699 
                -35.5439835129917 -59.4104049903183 -3.95202439669537 157.610341373312 -3.66183810715869 163.838578044337 -7.82767314859043 -56.7867778224902 
                -27.3093920534567 167.749623322248 -119.504623010668 -88.3523739675137 -66.1274632685422 46.6124737834902 
                -15.287280185704 50.9827249976727 -26.5400161294912 -177.042285357547 -27.2558554032676 169.506297163688 -27.3093920534567 167.749623322249 
                -0.145013496171298 0.378516677735702 -92.7389983309032 155.211872605913 -43.0905840094131 163.290752426965 
                -104.2325900746  -80.8831913508832 -118.598308976078 -72.3541520766946 -119.280666534455 -85.4841296231993 -119.504623010668 -88.3523739675169 
                -92.7389983309033 155.211872605913 -2.68606965962465E-05 133.202195781366 -119.038513251182 47.3830062664547 
                -53.5243441143672 -70.2401455762921 -65.3623279859365 61.756680100248  -66.0847001016391 48.7286134389705 -66.1274632685422 46.6124737834897 
                -43.0905840094131 163.290752426966 -119.038513251182 47.3830062664549 -0.000242225016496426 151.829593361996 
! Gamma         !               6.50142011265522E-06 5418.63882689973 0                0                0                0                0                0                
!               0                1789.70113617038 4527.95984819579 0                7746.70927725733 0                
! Port Impedance50               0                50               0                50               0                50               0                
!               50               0                50               0                50               0                

160              -0.149409207284482 -80.5033410207597 -34.8990964786582 -48.6220845790691 -35.6001771843852 -61.9588765537587 -35.661056074352 -63.4357440581871 
                -15.3127876104983 45.6874728201655 -104.433624715071 -85.4719931491997 -53.71305788297  -74.0370766226968 
                -34.8990964786582 -48.6220845790691 -7.24301934951173 -64.2167319960281 -3.91513394683325 158.399131868153 -3.95514940890222 157.386214721788 
                -25.6005766912751 -179.693048425667 -118.109016096957 -68.7135783651858 -64.5335853201758 60.4315148760245 
                -35.6001771843852 -61.9588765537602 -3.91513394683325 158.399131868153 -7.92129698635769 -55.4689162736928 -3.66577673883455 163.656530506803 
                -26.3162072969394 166.8814331359   -118.790365304615 -81.8323271568637 -65.2569520404765 47.4096621009797 
                -35.6610560743519 -63.4357440581862 -3.9551494089022 157.386214721788 -3.66577673883455 163.656530506803 -7.82150023048281 -56.9544047669871 
                -26.3698473492771 165.161221129001 -119.021771290817 -84.5864360878428 -65.2995894593051 45.3601368186393 
                -15.3127876104981 45.6874728201653 -25.600576691275 -179.693048425667 -26.3162072969395 166.8814331359   -26.369847349277 165.161221129002 
                -0.150271459046836 -5.66174924339137 -92.072782900423 152.090950646628 -42.5697648996719 160.340004780997 
                -104.433624715071 -85.4719931492001 -118.109016096957 -68.7135783651821 -118.790365304615 -81.8323271568669 -119.021771290817 -84.586436087845 
                -92.0727829004231 152.090950646628 -2.38515069205657E-05 132.784961634222 -119.054647534359 46.4782211500656 
                -53.7130578829701 -74.0370766226959 -64.5335853201757 60.4315148760248 -65.2569520404764 47.4096621009802 -65.299589459305 45.3601368186389 
                -42.5697648996719 160.340004780998 -119.054647534359 46.4782211500653 -0.000269504386196267 151.627181810369 