! Touchstone file exported from HFSS 2019.1.0
!        File:           D:/pgrimes/HFSS/Mixers/270-370GHz_wSMA_Fuzz_2019_05_tuner.aedt
!        Generated:      4:21:00 PM  Jun 19, 2019
!        Design:         270-370GHz
!        Project:        270-370GHz_wSMA_Fuzz_2019_05_tuner
!        Setup:          SetupIF
!        Solution:       Sweep
!
! Variables:
!        Area = 1.13097335529233
!        BackshortLength = 0.225mm
!        CPWGap = 4um
!        CPWLength = 1.5um
!        CPWWidth = 10um
!        CPWlineEndgap = 1.5um
!        CPWlineSidegap = 1.5um
!        CPWlineWidth = 6.5um
!        CPWlinelength = 6um
!        Cap = 0fF
!        CenterGap = 1.5um
!        ChipHeight = 0.082mm
!        ChipLength = 2.7105mm
!        ChipSlotDepth = 0.082mm
!        ChipSlotExtDepth = 0.1238mm
!        ChipSlotExtLen = 0.9375mm
!        ChipSlotExtLength = 0.6375mm
!        ChipSlotExtWidth = 0.25mm
!        ChipSlotFrontDepth = 0.082mm
!        ChipSlotFrontLength = 1.35525mm
!        ChipSlotFrontWidth = 0.25mm
!        ChipSlotLength = 2.7105mm
!        ChipSlotWidth = 0.34mm
!        ChipWidth = 0.33mm
!        FeedExtLength = 0um
!        FeedExtWidth = 10um
!        FeedLength = 63um
!        FeedWidth = 3.5um
!        GroundThick = 0.15um
!        InputLength = 270um
!        JunctionSize = 1.2um
!        Line1Length = 5.25um
!        Line2Length = 6um
!        PadWidth = 4.5um
!        Rj = 13.2629119243246ohm
!        Rn = 13.2629119243246ohm
!        RnA = 15ohm
!        Scap = 0fF
!        Sect3var = 2.25um
!        SiOlength = 150um
!        SiOstart = 50um
!        SiOthick = 0.35um
!        SiOwidth = 100um
!        WaveGuideHeight = 0.1875mm
!        WaveguideWidth = 0.75mm
!        WiringContactLength = 0.5115mm
!        WiringContactWidth = 169um
!        WiringProbeLength = 127.5um
!        WiringProbeTipLength = 18um
!        WiringProbeTipWidth = 19.5um
!        WiringProbeWidth = 169um
!        WiringSect1Length = 120um
!        WiringSect1Width = 9um
!        WiringSect2Length = 135um
!        WiringSect2Width = 169um
!        WiringSect3Length = 120um
!        WiringSect3Width = 9um
!        WiringSect4Length = 144um
!        WiringSect4Width = 169um
!        WiringSect5Length = 196.5um
!        WiringSect5Width = 9um
!        WiringThick = 0.5um
!        Zsurf_Nb1 = 0.1
!        loc_contact = 0.578mm
!        loc_contact2 = 0.638mm
!        rad_contact = 5mil
!
# GHZ S DB R 50.000000
! Modal data exported
! Port[1] = IFport1:1
! Port[2] = Junction1:1
! Port[3] = Junction2:1
! Port[4] = Junction3:1
! Port[5] = waveguide:1
0.1              -5.80353785858943 -0.495137903490554 -6.09543403682223 -0.368126705475462 -6.09543418857018 179.626034406471 -6.0954342161768 -0.374920687849369 
                -73.4426593771309 89.8249744059088 
                -6.09543403682231 -0.368126705415798 -6.09414314470642 0.0672333410897765 -5.9476582246825 -0.0951539509324224 -5.94765818202406 179.903577308804 
                -73.294890941856 -90.2325538671175 
                -6.09543418857019 179.626034406473 -5.94765822468248 -0.0951539508755073 -6.09414032650834 0.0675482834553839 -5.94766076178337 -0.0904694086566402 
                -73.2948910400692 89.7614787411179 
                -6.09543421617675 -0.374920688019576 -5.94765818202405 179.903577308742 -5.94766076178335 -0.0904694087913641 -6.09414034300509 0.0653191132613872 
                -73.2948910407126 -90.2395383531704 
                -73.4426593771342 89.8249744058862 -73.2948909418593 -90.232553867113 -73.2948910400725 89.761478741058  -73.2948910407159 -90.2395383531157 
                -8.07497413244409E-07 179.865813784415 
! Gamma         !               9.02853131303765E-06 2.9392491272657  0                0                0                0                0                0                
!               4188.79037718176 0                
! Port Impedance50               0                50               0                50               0                50               0                
!               50               0                

0.2              -5.80394485491215 -0.989071849068133 -6.0953005620146 -0.736010935045452 -6.09530125417671 179.252307403855 -6.09530135451068 -0.749607152043497 
                -67.1374099292444 88.5372904196783 
                -6.09530056201466 -0.736010935051638 -6.09388042278557 0.134776379520556 -5.94785991569251 -0.190598965656175 -5.94785974878582 179.806867919208 
                -66.9793934293703 -91.5572059791714 
                -6.09530125417677 179.252307403844 -5.94785991569247 -0.190598965663232 -6.09386900206381 0.135397999449641 -5.94786978678349 -0.181228228837768 
                -66.9795647539099 88.4305092831743 
                -6.09530135451068 -0.749607152018896 -5.94785974878581 179.806867919209 -5.94786978678353 -0.181228228785818 -6.09386904797708 0.130939789054126 
                -66.9795943235893 -91.5715905303386 
                -67.1374099292452 88.5372904196697 -66.9793934293712 -91.5572059791591 -66.9795647539108 88.4305092831779 -66.9795943235901 -91.5715905303299 
                -2.93257067320127E-06 179.731626605025 
! Gamma         !               8.90973845229731E-06 5.87849967188222 0                0                0                0                0                0                
!               4188.78880420957 0                
! Port Impedance50               0                50               0                50               0                50               0                
!               50               0                

0.3              -5.80464040398884 -1.48342905467435 -6.0950612590948 -1.10379140688059 -6.09506269103984 178.878685139296 -6.09506292401559 -1.12418788073662 
                -63.7715145308896 88.0691344992799 
                -6.09506125909479 -1.10379140687094 -6.09346141648149 0.202042356252394 -5.94819285719656 -0.285802858286754 -5.94819248043688 179.710398585983 
                -63.6146815608151 -92.1166654228172 
                -6.09506269103997 178.878685139283 -5.94819285719658 -0.285802858284215 -6.09343592058634 0.202970510687058 -5.94821543973868 -0.271745865009648 
                -63.6148448530673 87.8656191421396 
                -6.09506292401563 -1.12418788072009 -5.9481924804369 179.710398586001 -5.94821543973865 -0.27174586500591 -6.09343605197692 0.196283247226242 
                -63.6148729650066 -92.1374083751632 
                -63.7715145308905 88.069134499285  -63.614681560816 -92.1166654228101 -63.6148448530682 87.8656191421452 -63.6148729650074 -92.137408375168 
                -6.97568265645948E-06 179.597438949426 
! Gamma         !               8.72439730245557E-06 8.81775008747113 0                0                0                0                0                0                
!               4188.78618258794 0                
! Port Impedance50               0                50               0                50               0                50               0                
!               50               0                

0.4              -5.80563704924044 -1.97789007135637 -6.09470296671516 -1.47159896744337 -6.09470541948108 178.505035950073 -6.09470583988015 -1.49879527469248 
                -61.3756293927588 88.4598791324873 
                -6.09470296671516 -1.47159896744898 -6.09289925158802 0.269248308793045 -5.94863687906224 -0.380969753421903 -5.94863621079264 179.613965969607 
                -61.2243630187124 -91.7913348090654 
                -6.09470541948115 178.505035950092 -5.94863687906225 -0.380969753395582 -6.09285408425638 0.270481225566315 -5.94867732466543 -0.362225222038893 
                -61.2244511055387 88.1851074068087 
                -6.09470583988009 -1.49879527471481 -5.94863621079263 179.613965969588 -5.94867732466542 -0.362225222058881 -6.09285433807167 0.26156498015164 
                -61.2244660779644 -91.8189187841305 
                -61.3756293927588 88.4598791324917 -61.2243630187124 -91.7913348090665 -61.2244511055387 88.1851074068257 -61.2244660779643 -91.8189187841293 
                -1.28200069534136E-05 179.46325394294  
! Gamma         !               8.49147229491104E-06 11.7570006799849 0                0                0                0                0                0                
!               4188.78251231491 0                
! Port Impedance50               0                50               0                50               0                50               0                
!               50               0                

0.5              -5.8069247873223 -2.47236320803756 -6.09423607064361 -1.83949792465356 -6.09423984094805 178.131295426054 -6.09424050298339 -1.87349387795786 
                -59.463074300489 88.896328187333  
                -6.09423607064364 -1.83949792463526 -6.09218294333651 0.336461723912126 -5.94920140917058 -0.476173153251616 -5.94920036713784 179.517496704782 
                -59.3169153964824 -91.4004953364839 
                -6.09423984094818 178.131295426071 -5.94920140917054 -0.476173153267215 -6.09211248159538 0.337996547313453 -5.94926483158667 -0.452739289068583 
                -59.3169391896607 88.5697859824718 
                -6.09424050298337 -1.87349387798141 -5.9492003671378 179.517496704748 -5.94926483158665 -0.452739289095221 -6.09211289107682 0.32685140554659 
                -59.31694287103  -91.435293938544 
                -59.4630743004888 88.8963281873353 -59.3169153964822 -91.4004953364874 -59.3169391896605 88.5697859824761 -59.3169428710298 -91.4352939385387 
                -2.01943445135103E-05 179.329071965925 
! Gamma         !               8.23751546937312E-06 14.6962515775521 0                0                0                0                0                0                
!               4188.77779338771 0                
! Port Impedance50               0                50               0                50               0                50               0                
!               50               0                

0.6              -5.80849567760929 -2.96684645632895 -6.09366915946939 -2.2074900476556 -6.09367455053028 177.757461776292 -6.09367550771655 -2.24828551926576 
                -57.8668344531412 89.1167205294577 
                -6.09366915946937 -2.20749004767299 -6.09130344143704 0.403671226563387 -5.94989465672784 -0.571410285211392 -5.94989315800294 179.420993600132 
                -57.7241635554427 -91.2202636886348 
                -6.09367455053033 177.75746177629  -5.94989465672784 -0.571410285217543 -6.09120205850075 0.405504152756341 -5.94998614576439 -0.543284787756856 
                -57.7241530665761 88.7437680975535 
                -6.0936755077165 -2.24828551925944 -5.94989315800292 179.420993600143 -5.94998614576441 -0.543284787740251 -6.09120265556787 0.392130215543797 
                -57.7241506174837 -91.2623808337047 
                -57.8668344531414 89.1167205294654 -57.7241635554428 -91.2202636886323 -57.7241530665763 88.7437680975751 -57.7241506174838 -91.2623808336997 
                -2.89769175588743E-05 179.19489212868  
! Gamma         !               7.99666536494623E-06 17.6355028786644 0                0                0                0                0                0                
!               4188.7720258028  0                
! Port Impedance50               0                50               0                50               0                50               0                
!               50               0                

0.7              -5.81034539194911 -3.4613653962519 -6.09300711473537 -2.57555737680061 -6.09301443479491 177.383552954429 -6.09301573978084 -2.62315225672799 
                -56.5076247204676 89.103161213123  
                -6.09300711473543 -2.5755573767891 -6.09025565430649 0.470840694171678 -5.9507210817744 -0.666654320309386 -5.95071904279541 179.324483491713 
                -56.3671021435636 -91.278167760433 
                -6.09301443479494 177.383552954421 -5.95072108177439 -0.666654320322227 -6.09011773015213 0.472967028392318 -5.95084569910833 -0.633834388547423 
                -56.3670832011427 88.6796816234269 
                -6.09301573978093 -2.62315225672365 -5.95071904279538 179.324483491711 -5.95084569910831 -0.633834388553252 -6.09011854573646 0.457364414768943 
                -56.3670790594243 -91.3275246258083 
                -56.5076247204676 89.1031612131185 -56.3671021435636 -91.2781677604364 -56.3670832011426 88.6796816234214 -56.3670790594243 -91.327524625824 
                -3.92096199536929E-05 179.060713241426 
! Gamma         !               7.8106469306605E-06 20.5747546733453 0                0                0                0                0                0                
!               4188.76520955585 0                
! Port Impedance50               0                50               0                50               0                50               0                
!               50               0                

0.8              -5.81247231207077 -3.95595224463612 -6.09225198707735 -2.94367849649754 -6.09226154976745 177.009590372021 -6.09226325423041 -2.9980726819495 
                -55.3367734450129 88.9116085222036 
                -6.09225198707743 -2.94367849649604 -6.08903754614047 0.537928862652033 -5.95168216281052 -0.761873416851873 -5.95167949945259 179.227998216745 
                -55.1977153622708 -91.5231540016206 
                -6.09226154976751 177.009590372011 -5.95168216281049 -0.761873416865187 -6.08885747375269 0.540343060990773 -5.95184493558027 -0.724355768986461 
                -55.1977034278732 88.4286603007278 
                -6.09226325423039 -2.99807268194248 -5.95167949945259 179.227998216756 -5.95184493558029 -0.724355768969075 -6.08885853762317 0.522511910672461 
                -55.1977002364471 -91.5795776795348 
                -55.3367734450126 88.9116085222045 -55.1977153622704 -91.5231540016156 -55.1977034278729 88.4286603007233 -55.1977002364468 -91.5795776795405 
                -5.10670488226014E-05 178.92653432693  
! Gamma         !               7.72877152340091E-06 23.5140070484432 0                0                0                0                0                0                
!               4188.75734464174 0                
! Port Impedance50               0                50               0                50               0                50               0                
!               50               0                

0.9              -5.81487664350332 -4.45063762832278 -6.09140390770189 -3.31183532160783 -6.09141603320564 176.635592109423 -6.09141818781961 -3.37302871450311 
                -54.3195288541459 88.6079550088312 
                -6.09140390770201 -3.31183532159871 -6.08764917569293 0.604897444840517 -5.95277729363489 -0.857038613602702 -5.95277392131263 179.131566726845 
                -54.181893714921 -91.8911898515377 
                -6.09141603320571 176.635592109424 -5.95277729363488 -0.857038613604821 -6.08742136424128 0.607593151511007 -5.95298320890305 -0.814819514955551 
                -54.1818940209855 88.0547678778588 
                -6.09141818781967 -3.37302871451018 -5.95277392131265 179.13156672684  -5.95298320890305 -0.814819514956238 -6.08742270460417 0.587533626323777 
                -54.1818926509988 -91.954470834225 
                -54.3195288541456 88.6079550088324 -54.1818937149206 -91.8911898515481 -54.1818940209851 88.054767877866  -54.1818926509984 -91.9544708342289 
                -6.48123538303066E-05 178.792354893859 
! Gamma         !               7.80793692354418E-06 26.4532600893953 0                0                0                0                0                0                
!               4188.74843105456 0                
! Port Impedance50               0                50               0                50               0                50               0                
!               50               0                

1                -5.81755968187231 -4.94544730282741 -6.09046186028883 -3.68001587416196 -6.09047687691156 176.261570139453 -6.09047953137254 -3.74800838041565 
                -53.4292024535941 88.2480529437281 
                -6.09046186028888 -3.68001587416251 -6.08609186674393 0.67171451578592 -5.95400456966463 -0.952127148946279 -5.95400040344957 179.035211771109 
                -53.2934637278563 -92.3265823305631 
                -6.09047687691147 176.26157013945  -5.95400456966459 -0.952127148949781 -6.08581074235816 0.674684594061289 -5.95425857033832 -0.905202442134302 
                -53.293473285328 87.6137010281875 
                -6.09047953137251 -3.74800838041212 -5.95400040344956 179.035211771119 -5.95425857033834 -0.905202442126525 -6.08581238534799 0.652396878679631 
                -53.2934731833069 -92.3965067643362 
                -53.4292024535939 88.2480529437304 -53.293463727856 -92.3265823305635 -53.2934732853277 87.6137010281872 -53.2934731833067 -92.3965067643292 
                -8.07517494410983E-05 178.658175031764 
! Gamma         !               8.11262735741348E-06 29.3925138809332 0                0                0                0                0                0                
!               4188.73846878762 0                
! Port Impedance50               0                50               0                50               0                50               0                
!               50               0                

1.1              -5.82053971862693 -5.44023008395226 -6.08940850774608 -4.04833349811203 -6.0894258522292 175.887412041796 -6.08942911607218 -4.12312378397737 
                -52.5996781583824 88.0736075247636 
                -6.08940850774607 -4.04833349811406 -6.084383978133  0.738504748768018 -5.95535268702019 -1.0472654615309 -5.95534765579304 178.938807774154 
                -52.4658825782212 -92.5743968231158 
                -6.08942585222919 175.887412041791 -5.95535268702022 -1.04726546152858 -6.08404546638983 0.741743225784813 -5.95565946272822 -0.995630524244697 
                -52.4657585484214 87.3812849357396 
                -6.08942911607223 -4.12312378397081 -5.95534765579306 178.938807774155 -5.9556594627282 -0.995630524251728 -6.08404726097952 0.717226267554955 
                -52.4661584969864 -92.6317907052661 
                -52.5996781583824 88.073607524763  -52.4658825782214 -92.5743968231185 -52.4657585484212 87.3812849357344 -52.4661584969864 -92.6317907052631 
                -9.77496907925861E-05 178.524001192191 
! Gamma         !               8.112629388893E-06 32.331768293379  0                0                0                0                0                0                
!               4188.72745783344 0                
! Port Impedance50               0                50               0                50               0                50               0                
!               50               0                

1.2              -5.82380571256111 -5.93507712851313 -6.08825469867042 -4.41674279173112 -6.08827523084419 175.513160976283 -6.08827909955242 -4.49833241256453 
                -51.8410139287793 87.899794586177  
                -6.08825469867042 -4.41674279173482 -6.08251465723302 0.805187013237116 -5.95682954156697 -1.1423833611426 -5.95682351819585 178.842423688643 
                -51.7103757597699 -92.8097693515969 
                -6.08827523084427 175.513160976282 -5.956829541567  -1.14238336113997 -6.08211223130421 0.808686561815527 -5.95719456689417 -1.08603426356806 
                -51.7094945599503 87.1446691328375 
                -6.08827909955238 -4.4983324125618 -5.95682351819584 178.842423688648 -5.95719456689416 -1.08603426356652 -6.08211437083161 0.781940908640283 
                -51.7100830172332 -92.8692055444743 
                -51.8410139287793 87.8997945861783 -51.7103757597702 -92.8097693515988 -51.70949455995  87.1446691328404 -51.710083017233 -92.869205544478 
                -0.000116362350614481 178.389829890293 
! Gamma         !               8.11263159731102E-06 35.271023619249  0                0                0                0                0                0                
!               4188.71539818374 0                
! Port Impedance50               0                50               0                50               0                50               0                
!               50               0                

1.3              -5.82735810629776 -6.42999524628359 -6.08700078801876 -4.78525201065904 -6.08702517399231 175.138809709338 -6.08702967878054 -4.87364153160611 
                -51.1421469271211 87.7246508693146 
                -6.08700078801874 -4.78525201065859 -6.08048366096092 0.871752556606132 -5.95843544651544 -1.23747884147232 -5.95842834035664 178.746061526683 
                -51.0150144946886 -93.039708085585 
                -6.0870251739923 175.138809709348 -5.95843544651543 -1.23747884146521 -6.08001122000393 0.875502705410054 -5.95886406181539 -1.17641000493984 
                -51.0136201729144 86.9051138499192 
                -6.08702967878048 -4.87364153161369 -5.95842834035664 178.746061526684 -5.95886406181538 -1.1764100049482 -6.08001380981917 0.846528997747872 
                -51.0142143205151 -93.1089373373878 
                -51.1421469271212 87.7246508693175 -51.0150144946889 -93.0397080855854 -51.0136201729142 86.9051138499137 -51.014214320515 -93.1089373373817 
                -0.000136593777684975 178.255661306285 
! Gamma         !               8.11263398580271E-06 38.2102799361293 0                0                0                0                0                0                
!               4188.70228982948 0                
! Port Impedance50               0                50               0                50               0                50               0                
!               50               0                

1.4              -5.83119748969688 -6.92499115582302 -6.08564706234563 -5.15386906644488 -6.0856757799323 174.764350685402 -6.08568097492444 -5.24905864419639 
                -50.4944113453264 87.5478905564452 
                -6.08564706234563 -5.1538690664505 -6.07829086202401 0.938191610346908 -5.96017066256365 -1.33254965849592 -5.96016240518254 178.649723610165 
                -50.3708220155187 -93.268182148311 
                -6.08567577993231 174.7643506854   -5.96017066256367 -1.33254965848955 -6.07774266437985 0.942180369869649 -5.96066808462598 -1.26675455673974 
                -50.3693573820164 86.6640246431884 
                -6.08568097492443 -5.24905864419356 -5.96016240518251 178.649723610162 -5.96066808462596 -1.26675455674392 -6.07774575400095 0.910979152044241 
                -50.3698421875366 -93.3502966476754 
                -50.4944113453261 87.547890556446  -50.3708220155188 -93.2681821483129 -50.3693573820161 86.6640246431878 -50.3698421875362 -93.350296647676 
                -0.000158449784108442 178.121495641697 
! Gamma         !               8.11263655659839E-06 41.1495373224883 0                0                0                0                0                0                
!               4188.68813276079 0                
! Port Impedance50               0                50               0                50               0                50               0                
!               50               0                

1.5              -5.83532455316091 -7.4200713961023 -6.08419374888035 -5.52260187820031 -6.08422712943321 174.389776055648 -6.08423308032442 -5.62459151900132 
                -49.8908583398209 87.3698596892407 
                -6.08419374888043 -5.52260187820231 -6.07593624227719 1.0044939525368  -5.96203541981915 -1.42759351698799 -5.96202595294352 178.55341232925  
                -49.770802278612 -93.4971424045466 
                -6.08422712943319 174.389776055646 -5.96203541981918 -1.42759351698189 -6.07530680425826 1.00870869855519 -5.96260677430905 -1.35706508479385 
                -49.7696342667402 86.4224566361839 
                -6.08423308032431 -5.62459151900185 -5.96202595294354 178.553412329259 -5.96260677430906 -1.35706508479474 -6.07531041429329 0.975280359497702 
                -49.7699590976648 -93.5924946603597 
                -49.8908583398208 87.3698596892421 -49.7708022786122 -93.4971424045441 -49.7696342667402 86.422456636184  -49.7699590976647 -93.5924946603616 
                -0.000181936379383146 177.987333114708 
! Gamma         !               8.11263931134057E-06 44.0887958574273 0                0                0                0                0                0                
!               4188.67292696706 0                
! Port Impedance50               0                50               0                50               0                50               0                
!               50               0                

1.6              -5.83974005532196 -7.91524231299859 -6.08264102826335 -5.89145848315252 -6.08267931191118 174.015077749728 -6.08268608770579 -6.00024815004204 
                -49.3258215399232 87.1910340226202 
                -6.08264102826339 -5.89145848315343 -6.07341986951528 1.07064923455665 -5.9640299363689 -1.52260814580808 -5.9640192034002 178.457130037924 
                -49.2093468352003 -93.727336960292 
                -6.08267931191125 174.01507774973  -5.96402993636894 -1.52260814580123 -6.07270387078454 1.07507708893621 -5.96468029277195 -1.44733897799516 
                -49.2086888158022 86.1810418352124 
                -6.08268608770572 -6.00024815004084 -5.96401920340022 178.457130037932 -5.96468029277193 -1.44733897799698 -6.07270801189884 1.03942187253484 
                -49.2088499469783 -93.8349227695948 
                -49.325821539923 87.1910340226225 -49.2093468352002 -93.7273369602891 -49.208688815802 86.1810418352126 -49.2088499469781 -93.8349227695934 
                -0.000207059010780695 177.853173954285 
! Gamma         !               8.11264225126608E-06 47.028055620513  0                0                0                0                0                0                
!               4188.65667243685 0                
! Port Impedance50               0                50               0                50               0                50               0                
!               50               0                

1.7              -5.84444480566205 -8.41051007645368 -6.0809890517556 -6.2604470282244 -6.08103243696876 173.640247547753 -6.08104010482181 -6.3760366986635 
                -48.7946219910509 87.0118121210755 
                -6.08098905175565 -6.26044702822112 -6.07074187255644 1.13664714754798 -5.96615443147185 -1.61759131525469 -5.96614237237437 178.360879024681 
                -48.6818604132915 -93.9588705613878 
                -6.08103243696875 173.64024754775  -5.96615443147186 -1.61759131525618 -6.06993408342874 1.14127505788366 -5.96688883225819 -1.53757373234261 
                -48.6817815711893 85.9400693252047 
                -6.08104010482179 -6.37603669866225 -5.96614237237442 178.360879024687 -5.96688883225824 -1.53757373233396 -6.06993876782384 1.10339310341327 
                -48.681803412922 -94.077205690192 
                -48.7946219910508 87.0118121210753 -48.6818604132915 -93.958870561388 -48.6817815711892 85.9400693252032 -48.681803412922 -94.0772056901942 
                -0.000233822337390046 177.719018395028 
! Gamma         !               8.11264537731543E-06 49.9673166916709 0                0                0                0                0                0                
!               4188.63936915796 0                
! Port Impedance50               0                50               0                50               0                50               0                
!               50               0                

1.8              -5.84943965773153 -8.90588071516232 -6.07923795882753 -6.62957573562705 -6.0792866370557 173.265277141701 -6.07929525962664 -6.75196543579378 
                -48.2933573483853 86.8324560558373 
                -6.07923795882754 -6.62957573562749 -6.06790242046637 1.20247748977149 -5.9684091338586 -1.71254082786017 -5.96839568269343 178.264661519937 
                -48.1845151566436 -94.1915529184188 
                -6.07928663705565 173.265277141695 -5.96840913385859 -1.71254082786932 -6.06699765344071 1.20729215342612 -5.96923261549337 -1.62776686706556 
                -48.184979989465 85.6995980126369 
                -6.07929525962667 -6.75196543579367 -5.9683956826934 178.264661519936 -5.96923261549336 -1.62776686706266 -6.06700290049496 1.16718354269751 
                -48.1848998934845 -94.3191660303886 
                -48.2933573483855 86.8324560558364 -48.1845151566436 -94.1915529184195 -48.1849799894651 85.6995980126411 -48.1848998934846 -94.3191660303893 
                -0.00026223030645046 177.584866673402 
! Gamma         !               8.11264869020436E-06 52.9065791511091 0                0                0                0                0                0                
!               4188.62101711739 0                
! Port Impedance50               0                50               0                50               0                50               0                
!               50               0                

1.9              -5.85472550794277 -9.40136015766909 -6.07738789062141 -6.99885287629856 -6.07744206595839 172.890158183013 -6.07745170054395 -7.1280426925216 
                -47.8187453148277 86.6530979525855 
                -6.07738789062135 -6.99885287630261 -6.06490170736587 1.26813017787474 -5.9707942863698 -1.8074544996402 -5.97077937064909 178.168479718031 
                -47.7140823403832 -94.4250977696596 