! Touchstone file exported from HFSS 2019.1.0
!        File:           D:/pgrimes/HFSS/Mixers/270-370GHz_wSMA_Fuzz_2019_05_tuner.aedt
!        Generated:      4:09:22 PM  Jun 19, 2019
!        Design:         270-370GHz
!        Project:        270-370GHz_wSMA_Fuzz_2019_05_tuner
!        Setup:          SetupRF
!        Solution:       Sweep
!
! Variables:
!        Area = 1.13097335529233
!        BackshortLength = 0.225mm
!        CPWGap = 4um
!        CPWLength = 1.5um
!        CPWWidth = 10um
!        CPWlineEndgap = 1.5um
!        CPWlineSidegap = 1.5um
!        CPWlineWidth = 6.5um
!        CPWlinelength = 6um
!        Cap = 0fF
!        CenterGap = 1.5um
!        ChipHeight = 0.082mm
!        ChipLength = 2.7105mm
!        ChipSlotDepth = 0.082mm
!        ChipSlotExtDepth = 0.1238mm
!        ChipSlotExtLen = 0.9375mm
!        ChipSlotExtLength = 0.6375mm
!        ChipSlotExtWidth = 0.25mm
!        ChipSlotFrontDepth = 0.082mm
!        ChipSlotFrontLength = 1.35525mm
!        ChipSlotFrontWidth = 0.25mm
!        ChipSlotLength = 2.7105mm
!        ChipSlotWidth = 0.34mm
!        ChipWidth = 0.33mm
!        FeedExtLength = 0um
!        FeedExtWidth = 10um
!        FeedLength = 63um
!        FeedWidth = 3.5um
!        GroundThick = 0.15um
!        InputLength = 270um
!        JunctionSize = 1.2um
!        Line1Length = 5.25um
!        Line2Length = 6um
!        PadWidth = 4.5um
!        Rj = 13.2629119243246ohm
!        Rn = 13.2629119243246ohm
!        RnA = 15ohm
!        Scap = 0fF
!        Sect3var = 2.25um
!        SiOlength = 150um
!        SiOstart = 50um
!        SiOthick = 0.35um
!        SiOwidth = 100um
!        WaveGuideHeight = 0.1875mm
!        WaveguideWidth = 0.75mm
!        WiringContactLength = 0.5115mm
!        WiringContactWidth = 169um
!        WiringProbeLength = 127.5um
!        WiringProbeTipLength = 18um
!        WiringProbeTipWidth = 19.5um
!        WiringProbeWidth = 169um
!        WiringSect1Length = 120um
!        WiringSect1Width = 9um
!        WiringSect2Length = 135um
!        WiringSect2Width = 169um
!        WiringSect3Length = 120um
!        WiringSect3Width = 9um
!        WiringSect4Length = 144um
!        WiringSect4Width = 169um
!        WiringSect5Length = 196.5um
!        WiringSect5Width = 9um
!        WiringThick = 0.5um
!        Zsurf_Nb1 = 0.1
!        loc_contact = 0.578mm
!        loc_contact2 = 0.638mm
!        rad_contact = 5mil
!
# GHZ S DB R 50.000000
! Modal data exported
! Port[1] = IFport1:1
! Port[2] = Junction1:1
! Port[3] = Junction2:1
! Port[4] = Junction3:1
! Port[5] = waveguide:1
200              -0.0168582619354775 22.0427775464981 -34.5056455126497 19.1366129357005 -34.7788215386573 -169.167075117324 -34.7868478339679 10.6741525363751 
                -25.487916004659 -67.6653658939538 
                -34.5056455126498 19.1366129357007 -7.24256371667363 -51.3365550637272 -3.90740034719616 -10.9694530180685 -3.93336710180194 168.135587887176 
                -53.3606274868548 -154.33366948711 
                -34.7788215386573 -169.167075117324 -3.90740034719613 -10.9694530180686 -8.03224605121155 -45.8470109079663 -3.60857571600136 -7.10364761707228 
                -52.9573029406872 24.542543442785  
                -34.7868478339678 10.674152536375  -3.93336710180196 168.135587887176 -3.60857571600135 -7.10364761707229 -7.96582258275879 -47.2749570717941 
                -52.6211836797788 -151.169947894156 
                -25.487916004659 -67.6653658939536 -53.3606274868548 -154.333669487111 -52.9573029406872 24.5425434427849 -52.6211836797788 -151.169947894156 
                -0.012504756692994 22.5298636667487 
! Gamma         !               7.49533639023032E-06 5974.67543326443 0                0                0                0                0                0                
!               0                155.857710323529 
! Port Impedance50               0                50               0                50               0                50               0                
!               50               0                

201              -0.016153180459349 19.019547835051  -34.7107516435082 17.534374926278  -34.9944589251462 -170.929133668518 -35.0042034643983 8.86825754490072 
                -25.6589137522394 -69.5290533312505 
                -34.7107516435082 17.5343749262781 -7.2525865216397 -51.4584873320812 -3.9048800043694 -11.137477696695 -3.93101491937966 167.963464979791 
                -61.5778178966177 -148.313355286683 
                -34.9944589251462 -170.929133668518 -3.9048800043694 -11.137477696695 -8.04035503168315 -45.9007624620152 -3.60780495208347 -7.25274336733048 
                -59.5071421039474 39.8641309572545 
                -35.0042034643983 8.86825754490066 -3.93101491937966 167.963464979791 -3.60780495208347 -7.25274336733048 -7.9733390372257 -47.3350806078827 
                -58.3543975523656 -132.499288086855 
                -25.6589137522394 -69.5290533312504 -61.5778178966176 -148.313355286683 -59.5071421039474 39.8641309572544 -58.3543975523656 -132.499288086855 
                -0.0119848946373735 21.9015677659872 
! Gamma         !               7.49812160933286E-06 6005.63409629606 0                0                0                0                0                0                
!               0                447.698041926296 
! Port Impedance50               0                50               0                50               0                50               0                
!               50               0                

202              -0.0154980341309055 16.0731640257537 -34.9126232249894 15.958691878161  -35.2059819901899 -172.649703627899 -35.2172491916419 7.10895692161389 
                -25.8245432688538 -71.3555102438271 
                -34.9126232249894 15.9586918781606 -7.26245718760195 -51.5806297782394 -3.90242546591941 -11.3047388185414 -3.92872906921803 167.792108781134 
                -65.5924265054587 3.97021848757471 
                -35.2059819901899 -172.649703627899 -3.90242546591942 -11.3047388185414 -8.04825984224706 -45.9548996201103 -3.60709577742465 -7.40104804238269 
                -64.2398584527064 133.866697141049 
                -35.2172491916419 7.10895692161384 -3.92872906921802 167.792108781134 -3.60709577742463 -7.40104804238271 -7.98065184492402 -47.3955711637926 
                -61.9997445182222 -58.1645589488054 
                -25.8245432688538 -71.3555102438271 -65.5924265054588 3.97021848757491 -64.2398584527065 133.866697141049 -61.9997445182222 -58.1645589488057 
                -0.0115413748887095 21.2704189901662 
! Gamma         !               7.50091442116578E-06 6036.60888320436 0                0                0                0                0                0                
!               0                614.372819135877 
! Port Impedance50               0                50               0                50               0                50               0                
!               50               0                

203              -0.0148926659249399 13.1902186439823 -35.1105552221866 14.4048353495434 -35.4128460250453 -174.33640843413 -35.4254830898779 5.38762781231618 
                -25.9844334829791 -73.1478916024578 
                -35.1105552221866 14.4048353495429 -7.27219674093308 -51.7029320248515 -3.90003050862099 -11.4713241194593 -3.92650338611529 167.62143164032  
                -54.7205752715375 15.5573320319904 
                -35.4128460250454 -174.33640843413 -3.90003050862098 -11.4713241194593 -8.05597771180843 -46.0093310599077 -3.60644640797107 -7.54864620145983 
                -55.4633723784195 172.230392067355 
                -35.4254830898779 5.38762781231637 -3.92650338611528 167.62143164032  -3.60644640797105 -7.54864620145994 -7.98777762926614 -47.4563393395704 
                -55.2410514104764 -16.1177201914321 
                -25.9844334829791 -73.1478916024582 -54.7205752715357 15.5573320319916 -55.4633723784202 172.23039206735  -55.2410514104773 -16.11772019143  
                -0.0108612394494706 20.6409776073855 
! Gamma         !               7.50371472787984E-06 6067.59986859608 0                0                0                0                0                0                
!               0                745.220033488586 
! Port Impedance50               0                50               0                50               0                50               0                
!               50               0                

204              -0.0143273181500074 10.3605749957232 -35.3038369249222 12.8688957793992 -35.6144941759283 -175.99546054831 -35.6283721486452 3.69730026170153 
                -26.1383577858257 -74.9189711627993 
                -35.3038369249221 12.868895779399  -7.28182539695458 -51.8253506678339 -3.89769169539371 -11.6373267397835 -3.92433450703662 167.451341053512 
                -49.9919634337039 17.1519481924959 
                -35.6144941759283 -175.99546054831 -3.89769169539372 -11.6373267397835 -8.0635219636986 -46.0639627102382 -3.60585540225911 -7.69562385549687 
                -50.6863125483496 179.380174960178 
                -35.6283721486453 3.69730026170187 -3.92433450703661 167.451341053513 -3.6058554022591 -7.69562385549685 -7.99472927928445 -47.5172921028654 
                -50.6742028990707 -5.96292937608889 
                -26.1383577858257 -74.9189711627991 -49.9919634337032 17.1519481925011 -50.6863125483493 179.380174960175 -50.6742028990708 -5.96292937608869 
                -0.010586388107178 20.0027558457245 
! Gamma         !               7.50652243040762E-06 6098.60712689911 0                0                0                0                0                0                
!               0                856.814069097683 
! Port Impedance50               0                50               0                50               0                50               0                
!               50               0                

205              -0.0138041212267626 7.57624676629702 -35.4921237830102 11.3480950236557 -35.8106885823406 -177.63134451249 -35.8257037853007 2.03289731682696 
                -26.2860667446375 -76.6702886996164 
                -35.4921237830102 11.3480950236553 -7.29136269648215 -51.9478394876967 -3.89540466457467 -11.8028310941602 -3.92221808324884 167.281752901073 
                -46.9287805179328 17.5687115944249 
                -35.8106885823406 -177.63134451249 -3.89540466457468 -11.8028310941601 -8.07090682916472 -46.1187051517627 -3.60532151427694 -7.84206184917223 
                -47.56479627509  -177.999814211406 
                -35.8257037853007 2.03289731682684 -3.92221808324884 167.281752901073 -3.60532151427694 -7.84206184917234 -8.00152066833969 -47.5783416527669 
                -47.595268818567 -2.01547082933071 
                -26.2860667446375 -76.6702886996164 -46.9287805179325 17.5687115944264 -47.56479627509  -177.99981421141 -47.5952688185669 -2.01547082932847 
                -0.0104900279805169 19.3599317767804 
! Gamma         !               7.50933743010482E-06 6129.6307323666  0                0                0                0                0                0                
!               0                955.921708596376 
! Port Impedance50               0                50               0                50               0                50               0                
!               50               0                

206              -0.0133209084842498 4.83097929663305 -35.675132740595 9.84002326459108 -36.0012206826323 -179.24777607722 -36.0172882515536 0.390250249914332 
                -26.427518773055 -78.4040083461881 
                -35.675132740595 9.84002326459095 -7.3008274305174 -52.0703507039849 -3.89316480893541 -11.9679175199488 -3.92014951395127 167.112586956674 
                -44.6513338735402 17.6045206331548 
                -36.0012206826323 -179.247776077219 -3.89316480893541 -11.9679175199489 -8.07814637995236 -46.1734698836368 -3.60484369892958 -7.98803725979189 
                -45.2474919103541 -176.804926446519 
                -36.0172882515536 0.390250249914446 -3.92014951395127 167.112586956674 -3.60484369892958 -7.98803725979185 -8.0081655112053 -47.6394011768069 
                -45.2898962409845 -0.0937538834998403 
                -26.427518773055 -78.404008346188 -44.6513338735401 17.6045206331568 -45.2474919103542 -176.80492644652 -45.2898962409842 -0.0937538834997021 
                -0.0104500159264741 18.7134092025031 
! Gamma         !               7.51215962762988E-06 6160.67075907167 0                0                0                0                0                0                
!               0                1046.09788748418 
! Port Impedance50               0                50               0                50               0                50               0                
!               50               0                

207              -0.0128742959401421 2.11979413469994 -35.8526346598167 8.34260363901677 -36.1859184821512 179.152133142326 -36.2029676294465 -1.23411013950873 
                -26.5626845218145 -80.12259976277  
                -35.8526346598167 8.34260363901551 -7.3102378432622 -52.1928345841511 -3.89096777883282 -12.1326654583261 -3.91812445517562 166.9437638332   
                -42.8316669966638 17.4678038778494 
                -36.1859184821511 179.152133142325 -3.89096777883282 -12.1326654583261 -8.08525403978887 -46.2281667573513 -3.60442117032471 -8.13362551639471 
                -43.400542190775 -176.237445346584 
                -36.2029676294465 -1.23411013950915 -3.91812445517562 166.9437638332   -3.60442117032472 -8.13362551639476 -8.01467689780593 -47.7003821911308 
                -43.4464211319038 0.92876025832306 
                -26.5626845218145 -80.12259976277  -42.8316669966638 17.4678038778495 -43.4005421907751 -176.237445346583 -43.4464211319037 0.928760258323154 
                -0.0104346323933205 18.0627367219495 
! Gamma         !               7.51498892319424E-06 6191.72728090488 0                0                0                0                0                0                
!               0                1129.48385588424 
! Port Impedance50               0                50               0                50               0                50               0                
!               50               0                

208              -0.0124611740519108 -0.561323820724619 -36.0244490880467 6.85407707104268 -36.3646484211546 177.565786949716 -36.3826192713158 -2.84306852108121 
                -26.6915234429339 -81.8284378743603 
                -36.0244490880466 6.85407707104444 -7.31961174715545 -52.3152395076669 -3.88880967860435 -12.2971542277096 -3.91613901647645 166.775204273488 
                -41.311212953585 17.2382151560818 
                -36.3646484211546 177.565786949718 -3.88880967860436 -12.2971542277096 -8.09224242193957 -46.2827037021488 -3.60405343231829 -8.27890112775434 
                -41.8608417706847 -176.000939655754 
                -36.3826192713158 -2.84306852108152 -3.91613901647645 166.775204273488 -3.60405343231829 -8.2789011277544 -8.02106713714441 -47.7611942384854 
                -41.9073391264556 1.47583188795134 
                -26.6915234429339 -81.8284378743613 -41.3112129535848 17.238215156082  -41.8608417706848 -176.000939655755 -41.9073391264557 1.47583188795133 
                -0.010449928484956 17.4071400423068 
! Gamma         !               7.51782521657475E-06 6222.8003715713  0                0                0                0                0                0                
!               0                1207.48717776988 
! Port Impedance50               0                50               0                50               0                50               0                
!               50               0                

209              -0.0120790317322132 -3.21564607403087 -36.1904334596285 5.37295934047631 -36.5373079098984 175.991015225631 -36.5561493308299 -4.43903090334728 
                -26.8139920444699 -83.5236551777757 
                -36.1904334596285 5.37295934047617 -7.32896663225321 -52.4375120423001 -3.88668709010926 -12.4614630751984 -3.91418978361634 166.606829123797 
                -40.0010691014571 16.9528790713117 
                -36.5373079098984 175.991015225631 -3.88668709010926 -12.4614630751985 -8.09912335710814 -46.3369869488454 -3.60374028385888 -8.42393796787589 
                -40.5367687148275 -175.960169550042 
                -36.5561493308299 -4.4390309033473 -3.91418978361634 166.606829123797 -3.60374028385887 -8.42393796787588 -8.02734778119685 -47.8217451167452 
                -40.5828324167458 1.74159107073377 
                -26.8139920444699 -83.5236551777754 -40.0010691014572 16.9528790713123 -40.5367687148274 -175.960169550042 -40.5828324167458 1.74159107073387 
                -0.0105126129275882 16.7458389341584 
! Gamma         !               7.52066840711993E-06 6253.89010458772 0                0                0                0                0                0                
!               0                1281.09144932182 
! Port Impedance50               0                50               0                50               0                50               0                
!               50               0                

210              -0.0117258757852788 -5.84586076338715 -36.3504721503728 3.89798677609712 -36.7038160193642 174.425987590737 -36.7234840678145 -6.02402234534152 
                -26.930050345296 -85.2101151419107 
                -36.3504721503728 3.8979867760971  -7.33831978641731 -52.5595968018932 -3.88459702344239 -12.6256711948415 -3.91227376813643 166.438559319189 
                -38.8463259677941 16.631221175478  
                -36.7038160193642 174.425987590737 -3.8845970234424 -12.6256711948415 -8.10590800473362 -46.3909210505551 -3.60348181722534 -8.56880952062953 
                -39.371764862744 -176.044910936436 
                -36.7234840678145 -6.02402234534177 -3.91227376813644 166.438559319189 -3.60348181722534 -8.56880952062959 -8.03352972896981 -47.8819409229856 
                -39.4170144267912 1.82708815045121 
                -26.930050345296 -85.2101151419103 -38.8463259677942 16.6312211754771 -39.3717648627444 -176.044910936436 -39.417014426791 1.82708815045143 
                -0.0106392152698884 16.0781097118074 
! Gamma         !               7.52351839375561E-06 6284.99655327968 0                0                0                0                0                0                
!               0                1351.01585181059 
! Port Impedance50               0                50               0                50               0                50               0                
!               50               0                

211              -0.011400068894355 -8.45419269730322 -36.5044675931441 2.42806346506902 -36.8641054583012 172.869137106927 -36.8845622121101 -7.59977159889288 
                -27.0396634048489 -86.889432959274 
                -36.5044675931441 2.42806346506913 -7.34768841706977 -52.6814360590128 -3.88253684813355 -12.7898579014982 -3.91038833752427 166.270315702494 
                -37.8106677894586 16.2841487068716 
                -36.8641054583012 172.869137106927 -3.88253684813354 -12.7898579014982 -8.11260698292277 -46.4444085565406 -3.60327842016115 -8.71358917970599 
                -38.328473234989 -176.215345505093 
                -36.8845622121101 -7.5997715988928 -3.91038833752427 166.270315702494 -3.60327842016115 -8.71358917970606 -8.03962334929119 -47.9416857602568 
                -38.3728000039902 1.78979483258092 
                -27.0396634048489 -86.8894329592741 -37.8106677894586 16.2841487068716 -38.3284732349891 -176.215345505093 -38.3728000039902 1.78979483258067 
                -0.0108427740690991 15.4032737866211 
! Gamma         !               7.52637507499052E-06 6316.11979077866 0                0                0                0                0                0                
!               0                1417.80494971373 
! Port Impedance50               0                50               0                50               0                50               0                
!               50               0                

212              -0.0111001916731101 -11.0424950195152 -36.6523337224687 0.962215745540515 -37.0181165210005 171.319096783373 -37.0393291631371 -9.16778096711709 
                -27.142799862563 -88.563012025701 
                -36.6523337224687 0.962215745540616 -7.35708976392033 -52.8029691667423 -3.88050422976177 -12.9541029724264 -3.9085311511425 166.102018670589 
                -36.8688192284891 15.9180559636626 
                -37.0181165210005 171.319096783373 -3.88050422976177 -12.9541029724264 -8.11923048356079 -46.4973493890924 -3.60313078592119 -8.85835060043731 
                -37.3809333423838 -176.447424745222 
                -37.039329163137 -9.16778096711692 -3.9085311511425 166.102018670589 -3.6031307859212 -8.85835060043741 -8.04563859009811 -48.0008811510962 
                -37.424342644119 1.66458019579696 
                -27.142799862563 -88.5630120257008 -36.8688192284892 15.9180559636629 -37.3809333423838 -176.447424745222 -37.4243426441189 1.66458019579698 
                -0.0111325951789093 14.7206715704338 
! Gamma         !               7.52923834892199E-06 6347.25989001905 0                0                0                0                0                0                
!               0                1481.88273230145 
! Port Impedance50               0                50               0                50               0                50               0                
!               50               0                

213              -0.0108249512289338 -13.61232022931  -36.7939913493467 -0.500444485422569 -37.1657928015289 169.77464871212  -37.1877328743657 -10.7293821414158 
                -27.2394292785614 -90.2320832783775 
                -36.7939913493467 -0.500444485422761 -7.36654119691562 -52.9241318605143 -3.87849708216588 -13.1184871198329 -3.90670011222046 165.933587688212 
                -36.0024786767006 15.536784189874  
                -37.1657928015289 169.77464871212  -3.87849708216588 -13.1184871198329 -8.12578835825618 -46.5496400190364 -3.60303993142039 -9.00316808026027 
                -36.5103760479212 -176.725923076513 
                -37.1877328743656 -10.7293821414157 -3.90670011222046 165.933587688212 -3.60303993142039 -9.00316808026026 -8.05158506016159 -48.0594252497861 
                -36.5529200621484 1.47366425307659 
                -27.2394292785614 -90.2320832783773 -36.0024786767009 15.5367841898737 -36.510376047921 -176.725923076513 -36.5529200621484 1.47366425307683 
                -0.011515083238603 14.0296386990972 
! Gamma         !               7.53210811324169E-06 6378.41692373531 0                0                0                0                0                0                
!               0                1543.58689500297 
! Port Impedance50               0                50               0                50               0                50               0                
!               50               0                

214              -0.010573131459429 -16.1649758571847 -36.9293649462147 -1.96074812029841 -37.3070782481733 168.234684307928 -37.3297210279882 -12.2857799079356 
                -27.3295193134285 -91.8977423811759 
                -36.9293649462147 -1.96074812029862 -7.37606029852532 -53.0448555014977 -3.87651353831355 -13.2830925525616 -3.90489333900799 165.764940713301 
                -35.1979669586974 15.1426613308965 
                -37.3070782481734 168.234684307928 -3.87651353831355 -13.2830925525617 -8.13229017150037 -46.6011725293043 -3.60300722215679 -9.14811694945712 
                -35.702793038541 -177.040844660925 
                -37.3297210279881 -12.2857799079353 -3.90489333900799 165.764940713301 -3.6030072221568 -9.14811694945712 -8.0574720795317 -48.1172119407009 
                -35.7445409363415 1.23176134060246 
                -27.3295193134285 -91.8977423811759 -35.1979669586975 15.1426613308955 -35.7027930385411 -177.040844660924 -35.7445409363414 1.2317613406027  
                -0.0119948114688919 13.3294878713593 
! Gamma         !               7.53498426524149E-06 6409.59096445897 0                0                0                0                0                0                
!               0                1603.1915312363  
! Port Impedance50               0                50               0                50               0                50               0                
!               50               0                

215              -0.0103435738296616 -18.7015685524305 -37.0583803842175 -3.41949010635418 -37.4419151465691 166.698173704962 -37.4652391073898 -13.8380859175614 
                -27.413033234205 -93.5609830241436 
                -37.0583803842174 -3.41949010635425 -7.38566493298568 -53.165066305172 -3.87455193967804 -13.448003592588 -3.90310915491214 165.595993569633 
                -34.4447890674803 14.7370858980054 
                -37.4419151465692 166.698173704961 -3.87455193967806 -13.448003592588 -8.13874522312546 -46.6518336350178 -3.60303440234225 -9.29327396355465 
                -34.9474513262456 -177.385438930562 
                -37.4652391073897 -13.8380859175609 -3.90310915491213 165.595993569633 -3.60303440234225 -9.29327396355467 -8.0633087005422 -48.1741298899868 
                -34.9884757681105 0.948918882981979 
                -27.413033234205 -93.5609830241436 -34.4447890674805 14.7370858980049 -34.9474513262456 -177.385438930562 -34.9884757681104 0.948918882982284 
                -0.0125755124269792 12.6194956442461 
! Gamma         !               7.53786670181948E-06 6440.78208451568 0                0                0                0                0                0                
!               0                1660.92269010388 
! Port Impedance50               0                50               0                50               0                50               0                
!               50               0                

216              -0.0101351778392335 -21.2230393074621 -37.1809632688846 -4.87744509192852 -37.5702427006883 165.1641423829   -37.5942290484768 -15.387344621878 
                -27.4899279185155 -95.222725966239 
                -37.1809632688845 -4.87744509192866 -7.39537330728118 -53.2846845792292 -3.87261084265247 -13.6133073213609 -3.90134609606529 165.426659292773 
                -33.7347133427302 14.3208677924083 
                -37.5702427006884 165.1641423829   -3.87261084265247 -13.613307321361 -8.14516254498782 -46.7015037054993 -3.60312362904918 -9.43871769735383 
                -34.2359431795877 -177.755047520895 
                -37.5942290484767 -15.3873446218774 -3.90134609606529 165.426659292773 -3.60312362904917 -9.43871769735381 -8.069103704012  -48.2300615953923 
                -34.276314328039 0.632167505442239 
                -27.4899279185155 -95.2227259662392 -33.7347133427303 14.3208677924078 -34.2359431795876 -177.755047520894 -34.2763143280389 0.632167505442048 
                -0.013260894093088 11.8988927222098 
! Gamma         !               7.54075531948598E-06 6471.99035602223 0                0                0                0                0                0                
!               0                1716.96936269906 
! Port Impedance50               0                50               0                50               0                50               0                
!               50               0                

217              -0.00994691266755679 -23.7301918297321 -37.2970376181533 -6.33537886698102 -37.6919959668457 163.631653291791 -37.7166282325148 -16.9345532335675 
                -27.5601523678353 -96.8838440030245 
                -37.2970376181532 -6.33537886698112 -7.40520402974243 -53.4036239760959 -3.8706890400797 -13.7790942392737 -3.89960293427629 165.25684746678  
                -33.0611593358003 13.8944320951875 
                -37.6919959668458 163.63165329179  -3.87068904007971 -13.7790942392737 -8.15155087803238 -46.750055812283 -3.60327750982351 -9.58452894666592 
                -33.5615552562693 -178.146407278618 
                -37.7166282325147 -16.9345532335669 -3.89960293427628 165.25684746678  -3.60327750982351 -9.58452894666598 -8.07486557649175 -48.2848824581377 
                -33.6013383351701 0.286520550142016 
                -27.5601523678352 -96.8838440030246 -33.0611593358005 13.894432095187  -33.5615552562693 -178.146407278618 -33.60133833517  0.286520550142155 
                -0.0140552754511402 11.1668563957685 
! Gamma         !               7.54365001436971E-06 6503.21585088358 0                0                0                0                0                0                
!               0                1771.4914382135  
! Port Impedance50               0                50               0                50               0                50               0                
!               50               0                

218              -0.00977783384276085 -26.2237155657898 -37.4065247062851 -7.7940568645306 -37.8071049690571 162.099792990649 -37.8323686535375 -18.4806772910163 
                -27.6236466670894 -98.5451832500857 
                -37.4065247062851 -7.79405686453081 -7.41517617240238 -53.521790747705 -3.86878559589011 -13.9454589282564 -3.89787871318902 165.086463562131 
                -32.4187778661813 13.4579421972487 
                -37.8071049690573 162.099792990649 -3.86878559589012 -13.9454589282564 -8.15791863614168 -46.7973548080137 -3.60349914395229 -9.73079114754055 