! Sonnet Data File
! From: emgraph Version : 10.52
! From Emgraph Data: f72T6_window_R20
! Data File Written: 03/14/2007 17:39:56
!< HDATE 03/14/2007 17:36:04
!< MDATE 03/14/2007 17:36:04
# GHZ S MA R 20.00000
0.10000000 8.261e-4 -90.07 1.000000 -0.060 1.000000 -0.060 8.261e-4 -90.05
0.20000000 0.001652 -90.10 0.999998 -0.121 0.999998 -0.121 0.001652 -90.07
0.30000000 0.002478 -90.15 0.999995 -0.181 0.999995 -0.181 0.002477 -90.12
0.40000000 0.003303 -90.22 0.999992 -0.241 0.999992 -0.241 0.003303 -90.17
0.50000000 0.004129 -90.29 0.999988 -0.302 0.999988 -0.302 0.004129 -90.22
0.60000000 0.004955 -90.36 0.999984 -0.362 0.999984 -0.362 0.004955 -90.27
0.70000000 0.005781 -90.43 0.999979 -0.422 0.999979 -0.422 0.005780 -90.33
0.80000000 0.006607 -90.50 0.999974 -0.483 0.999974 -0.483 0.006606 -90.38
0.90000000 0.007432 -90.58 0.999968 -0.543 0.999968 -0.543 0.007432 -90.43
1.00000000 0.008258 -90.65 0.999961 -0.604 0.999961 -0.604 0.008258 -90.49
1.10000000 0.009084 -90.72 0.999954 -0.664 0.999954 -0.664 0.009083 -90.54
1.20000000 0.009910 -90.79 0.999946 -0.724 0.999946 -0.724 0.009909 -90.60
1.30000000 0.010735 -90.87 0.999938 -0.785 0.999938 -0.785 0.010735 -90.65
1.40000000 0.011561 -90.94 0.999929 -0.845 0.999929 -0.845 0.011560 -90.71
1.50000000 0.012387 -91.01 0.999919 -0.905 0.999919 -0.905 0.012386 -90.76
1.60000000 0.013212 -91.08 0.999909 -0.966 0.999909 -0.966 0.013212 -90.81
1.70000000 0.014038 -91.15 0.999898 -1.026 0.999898 -1.026 0.014037 -90.87
1.80000000 0.014863 -91.22 0.999886 -1.086 0.999886 -1.086 0.014863 -90.92
1.90000000 0.015689 -91.30 0.999874 -1.147 0.999874 -1.147 0.015688 -90.98
2.00000000 0.016514 -91.37 0.999861 -1.207 0.999861 -1.207 0.016514 -91.03
2.10000000 0.017340 -91.44 0.999848 -1.267 0.999848 -1.267 0.017339 -91.08
2.20000000 0.018165 -91.51 0.999834 -1.328 0.999834 -1.328 0.018165 -91.14
2.30000000 0.018990 -91.58 0.999819 -1.388 0.999819 -1.388 0.018990 -91.19
2.40000000 0.019815 -91.65 0.999803 -1.448 0.999803 -1.448 0.019815 -91.24
2.50000000 0.020641 -91.72 0.999787 -1.509 0.999787 -1.509 0.020641 -91.30
2.60000000 0.021466 -91.79 0.999770 -1.569 0.999770 -1.569 0.021466 -91.35
2.70000000 0.022291 -91.86 0.999752 -1.629 0.999752 -1.629 0.022291 -91.40
2.80000000 0.023116 -91.93 0.999734 -1.690 0.999734 -1.690 0.023116 -91.45
2.90000000 0.023941 -92.00 0.999715 -1.750 0.999715 -1.750 0.023941 -91.51
3.00000000 0.024766 -92.07 0.999696 -1.810 0.999696 -1.810 0.024766 -91.56
3.10000000 0.025591 -92.14 0.999675 -1.871 0.999675 -1.871 0.025591 -91.61
3.20000000 0.026415 -92.21 0.999654 -1.931 0.999654 -1.931 0.026416 -91.66
3.30000000 0.027240 -92.28 0.999632 -1.991 0.999632 -1.991 0.027241 -91.72
3.40000000 0.028065 -92.35 0.999610 -2.052 0.999610 -2.052 0.028065 -91.77
3.50000000 0.028890 -92.42 0.999586 -2.112 0.999586 -2.112 0.028890 -91.82
3.60000000 0.029714 -92.49 0.999562 -2.172 0.999562 -2.172 0.029715 -91.87
3.70000000 0.030539 -92.56 0.999538 -2.233 0.999538 -2.233 0.030539 -91.92
3.80000000 0.031363 -92.62 0.999512 -2.293 0.999512 -2.293 0.031364 -91.98
3.90000000 0.032188 -92.69 0.999486 -2.353 0.999486 -2.353 0.032188 -92.03
4.00000000 0.033012 -92.76 0.999459 -2.414 0.999459 -2.414 0.033013 -92.08
4.10000000 0.033836 -92.83 0.999431 -2.474 0.999431 -2.474 0.033837 -92.13
4.20000000 0.034661 -92.90 0.999403 -2.534 0.999403 -2.534 0.034661 -92.18
4.30000000 0.035485 -92.97 0.999373 -2.595 0.999373 -2.595 0.035486 -92.23
4.40000000 0.036309 -93.03 0.999343 -2.655 0.999343 -2.655 0.036310 -92.28
4.50000000 0.037134 -93.10 0.999313 -2.715 0.999313 -2.715 0.037134 -92.34
4.60000000 0.037958 -93.17 0.999281 -2.775 0.999281 -2.775 0.037958 -92.39
4.70000000 0.038782 -93.24 0.999249 -2.836 0.999249 -2.836 0.038782 -92.44
4.80000000 0.039606 -93.31 0.999216 -2.896 0.999216 -2.896 0.039606 -92.49
4.90000000 0.040430 -93.37 0.999182 -2.956 0.999182 -2.956 0.040430 -92.54
5.00000000 0.041254 -93.44 0.999148 -3.016 0.999148 -3.016 0.041254 -92.59
5.10000000 0.042078 -93.51 0.999113 -3.077 0.999113 -3.077 0.042078 -92.64
5.20000000 0.042902 -93.58 0.999077 -3.137 0.999077 -3.137 0.042902 -92.69
5.30000000 0.043726 -93.64 0.999040 -3.197 0.999040 -3.197 0.043726 -92.74
5.40000000 0.044550 -93.71 0.999002 -3.257 0.999002 -3.257 0.044549 -92.79
5.50000000 0.045374 -93.78 0.998964 -3.318 0.998964 -3.318 0.045373 -92.84
5.60000000 0.046198 -93.84 0.998925 -3.378 0.998925 -3.378 0.046197 -92.89
5.70000000 0.047022 -93.91 0.998885 -3.438 0.998885 -3.438 0.047020 -92.94
5.80000000 0.047846 -93.98 0.998845 -3.498 0.998845 -3.498 0.047844 -92.99
5.90000000 0.048670 -94.04 0.998804 -3.558 0.998804 -3.558 0.048668 -93.04
6.00000000 0.049494 -94.11 0.998762 -3.619 0.998762 -3.619 0.049491 -93.09
6.10000000 0.050318 -94.18 0.998719 -3.679 0.998719 -3.679 0.050315 -93.15
6.20000000 0.051142 -94.24 0.998675 -3.739 0.998675 -3.739 0.051138 -93.20
6.30000000 0.051966 -94.31 0.998631 -3.799 0.998631 -3.799 0.051962 -93.25
6.40000000 0.052789 -94.38 0.998586 -3.859 0.998586 -3.859 0.052785 -93.30
6.50000000 0.053613 -94.44 0.998541 -3.919 0.998541 -3.919 0.053608 -93.35
6.60000000 0.054437 -94.51 0.998494 -3.979 0.998494 -3.979 0.054432 -93.40
6.70000000 0.055261 -94.58 0.998447 -4.039 0.998447 -4.039 0.055255 -93.45
6.80000000 0.056085 -94.64 0.998399 -4.100 0.998399 -4.100 0.056078 -93.50
6.90000000 0.056909 -94.71 0.998350 -4.160 0.998350 -4.160 0.056902 -93.55
7.00000000 0.057733 -94.78 0.998301 -4.220 0.998301 -4.220 0.057725 -93.60
7.10000000 0.058556 -94.84 0.998251 -4.280 0.998251 -4.280 0.058548 -93.65
7.20000000 0.059380 -94.91 0.998200 -4.340 0.998200 -4.340 0.059371 -93.70
7.30000000 0.060204 -94.98 0.998149 -4.400 0.998149 -4.400 0.060194 -93.75
7.40000000 0.061028 -95.04 0.998096 -4.460 0.998096 -4.460 0.061018 -93.80
7.50000000 0.061852 -95.11 0.998043 -4.520 0.998043 -4.520 0.061841 -93.85
7.60000000 0.062675 -95.18 0.997990 -4.580 0.997990 -4.580 0.062664 -93.90
7.70000000 0.063499 -95.24 0.997936 -4.640 0.997936 -4.640 0.063487 -93.95
7.80000000 0.064323 -95.31 0.997880 -4.700 0.997880 -4.700 0.064310 -94.00
7.90000000 0.065147 -95.38 0.997825 -4.760 0.997825 -4.760 0.065132 -94.05
8.00000000 0.065971 -95.44 0.997768 -4.820 0.997768 -4.820 0.065955 -94.10
8.10000000 0.066794 -95.51 0.997711 -4.880 0.997711 -4.880 0.066778 -94.15
8.20000000 0.067618 -95.58 0.997653 -4.940 0.997653 -4.940 0.067601 -94.20
8.30000000 0.068442 -95.64 0.997595 -5.000 0.997595 -5.000 0.068424 -94.25
8.40000000 0.069266 -95.71 0.997536 -5.060 0.997536 -5.060 0.069246 -94.30
8.50000000 0.070089 -95.78 0.997476 -5.119 0.997476 -5.119 0.070069 -94.35
8.60000000 0.070913 -95.84 0.997416 -5.179 0.997416 -5.179 0.070892 -94.40
8.70000000 0.071737 -95.91 0.997354 -5.239 0.997354 -5.239 0.071714 -94.45
8.80000000 0.072561 -95.98 0.997293 -5.299 0.997293 -5.299 0.072537 -94.50
8.90000000 0.073384 -96.04 0.997230 -5.359 0.997230 -5.359 0.073359 -94.55
9.00000000 0.074208 -96.11 0.997167 -5.419 0.997167 -5.419 0.074181 -94.60
9.10000000 0.075031 -96.18 0.997103 -5.479 0.997103 -5.479 0.075004 -94.65
9.20000000 0.075855 -96.24 0.997039 -5.538 0.997039 -5.538 0.075826 -94.70
9.30000000 0.076678 -96.31 0.996974 -5.598 0.996974 -5.598 0.076648 -94.75
9.40000000 0.077502 -96.38 0.996908 -5.658 0.996908 -5.658 0.077470 -94.80
9.50000000 0.078325 -96.44 0.996842 -5.718 0.996842 -5.718 0.078292 -94.85
9.60000000 0.079149 -96.51 0.996775 -5.778 0.996775 -5.778 0.079114 -94.90
9.70000000 0.079972 -96.58 0.996707 -5.837 0.996707 -5.837 0.079936 -94.96
9.80000000 0.080795 -96.64 0.996639 -5.897 0.996639 -5.897 0.080758 -95.01
9.90000000 0.081619 -96.71 0.996570 -5.957 0.996570 -5.957 0.081579 -95.06
10.0000000 0.082442 -96.78 0.996501 -6.016 0.996501 -6.016 0.082401 -95.11
10.1000000 0.083265 -96.85 0.996431 -6.076 0.996431 -6.076 0.083223 -95.16
10.2000000 0.084088 -96.91 0.996360 -6.136 0.996360 -6.136 0.084044 -95.21
10.3000000 0.084911 -96.98 0.996289 -6.195 0.996289 -6.195 0.084865 -95.26
10.4000000 0.085734 -97.05 0.996217 -6.255 0.996217 -6.255 0.085686 -95.31
10.5000000 0.086556 -97.12 0.996144 -6.315 0.996144 -6.315 0.086507 -95.36
10.6000000 0.087379 -97.18 0.996071 -6.374 0.996071 -6.374 0.087328 -95.41
10.7000000 0.088202 -97.25 0.995998 -6.434 0.995998 -6.434 0.088149 -95.46
10.8000000 0.089024 -97.32 0.995924 -6.494 0.995924 -6.494 0.088970 -95.52
10.9000000 0.089847 -97.39 0.995849 -6.553 0.995849 -6.553 0.089790 -95.57
11.0000000 0.090669 -97.45 0.995773 -6.613 0.995773 -6.613 0.090611 -95.62
11.1000000 0.091491 -97.52 0.995697 -6.672 0.995697 -6.672 0.091431 -95.67
11.2000000 0.092313 -97.59 0.995621 -6.732 0.995621 -6.732 0.092251 -95.72
11.3000000 0.093135 -97.66 0.995543 -6.792 0.995543 -6.792 0.093071 -95.77
11.4000000 0.093957 -97.72 0.995466 -6.851 0.995466 -6.851 0.093891 -95.82
11.5000000 0.094779 -97.79 0.995387 -6.911 0.995387 -6.911 0.094711 -95.87
11.6000000 0.095600 -97.86 0.995309 -6.970 0.995309 -6.970 0.095530 -95.93
11.7000000 0.096422 -97.93 0.995229 -7.030 0.995229 -7.030 0.096350 -95.98
11.8000000 0.097243 -98.00 0.995149 -7.089 0.995149 -7.089 0.097169 -96.03
11.9000000 0.098064 -98.06 0.995068 -7.149 0.995068 -7.149 0.097988 -96.08
12.0000000 0.098885 -98.13 0.994987 -7.208 0.994987 -7.208 0.098807 -96.13
12.1000000 0.099706 -98.20 0.994906 -7.268 0.994906 -7.268 0.099625 -96.18
12.2000000 0.100526 -98.27 0.994823 -7.327 0.994823 -7.327 0.100444 -96.23
12.3000000 0.101347 -98.34 0.994741 -7.387 0.994741 -7.387 0.101262 -96.29
12.4000000 0.102167 -98.40 0.994657 -7.446 0.994657 -7.446 0.102080 -96.34
12.5000000 0.102987 -98.47 0.994573 -7.506 0.994573 -7.506 0.102898 -96.39
12.6000000 0.103807 -98.54 0.994489 -7.565 0.994489 -7.565 0.103715 -96.44
12.7000000 0.104626 -98.61 0.994404 -7.624 0.994404 -7.624 0.104533 -96.49
12.8000000 0.105446 -98.68 0.994318 -7.684 0.994318 -7.684 0.105350 -96.55
12.9000000 0.106265 -98.75 0.994232 -7.743 0.994232 -7.743 0.106167 -96.60
13.0000000 0.107084 -98.81 0.994145 -7.803 0.994145 -7.803 0.106983 -96.65
13.1000000 0.107903 -98.88 0.994058 -7.862 0.994058 -7.862 0.107800 -96.70
13.2000000 0.108721 -98.95 0.993970 -7.921 0.993970 -7.921 0.108616 -96.75
13.3000000 0.109540 -99.02 0.993882 -7.981 0.993882 -7.981 0.109432 -96.81
13.4000000 0.110358 -99.09 0.993793 -8.040 0.993793 -8.040 0.110248 -96.86
13.5000000 0.111176 -99.16 0.993704 -8.100 0.993704 -8.100 0.111063 -96.91
13.6000000 0.111993 -99.23 0.993614 -8.159 0.993614 -8.159 0.111878 -96.96
13.7000000 0.112810 -99.30 0.993523 -8.218 0.993523 -8.218 0.112693 -97.01
13.8000000 0.113628 -99.36 0.993432 -8.278 0.993432 -8.278 0.113508 -97.07
13.9000000 0.114444 -99.43 0.993340 -8.337 0.993340 -8.337 0.114322 -97.12
14.0000000 0.115261 -99.50 0.993248 -8.396 0.993248 -8.396 0.115136 -97.17
14.1000000 0.116077 -99.57 0.993155 -8.456 0.993155 -8.456 0.115950 -97.22
14.2000000 0.116893 -99.64 0.993062 -8.515 0.993062 -8.515 0.116763 -97.27
14.3000000 0.117708 -99.71 0.992968 -8.574 0.992968 -8.574 0.117576 -97.33
14.4000000 0.118524 -99.78 0.992874 -8.634 0.992874 -8.634 0.118389 -97.38
14.5000000 0.119339 -99.85 0.992779 -8.693 0.992779 -8.693 0.119202 -97.43
14.6000000 0.120153 -99.92 0.992684 -8.752 0.992684 -8.752 0.120014 -97.48
14.7000000 0.120968 -99.99 0.992588 -8.811 0.992588 -8.811 0.120826 -97.54
14.8000000 0.121782 -100.1 0.992491 -8.871 0.992491 -8.871 0.121638 -97.59
14.9000000 0.122595 -100.1 0.992394 -8.930 0.992394 -8.930 0.122449 -97.64
15.0000000 0.123409 -100.2 0.992296 -8.989 0.992296 -8.989 0.123260 -97.69
15.1000000 0.124222 -100.3 0.992198 -9.049 0.992198 -9.049 0.124070 -97.74
15.2000000 0.125034 -100.3 0.992100 -9.108 0.992100 -9.108 0.124881 -97.80
15.3000000 0.125847 -100.4 0.992000 -9.167 0.992000 -9.167 0.125690 -97.85
15.4000000 0.126659 -100.5 0.991900 -9.226 0.991900 -9.226 0.126500 -97.90
15.5000000 0.127470 -100.5 0.991800 -9.286 0.991800 -9.286 0.127309 -97.95
15.6000000 0.128281 -100.6 0.991699 -9.345 0.991699 -9.345 0.128118 -98.01
15.7000000 0.129092 -100.7 0.991598 -9.404 0.991598 -9.404 0.128926 -98.06
15.8000000 0.129902 -100.7 0.991495 -9.463 0.991495 -9.463 0.129734 -98.11
15.9000000 0.130712 -100.8 0.991393 -9.523 0.991393 -9.523 0.130542 -98.16
16.0000000 0.131522 -100.9 0.991290 -9.582 0.991290 -9.582 0.131350 -98.22
16.1000000 0.132331 -101.0 0.991186 -9.641 0.991186 -9.641 0.132156 -98.27
16.2000000 0.133140 -101.0 0.991081 -9.700 0.991081 -9.700 0.132963 -98.32
16.3000000 0.133948 -101.1 0.990977 -9.760 0.990977 -9.760 0.133769 -98.37
16.4000000 0.134756 -101.2 0.990871 -9.819 0.990871 -9.819 0.134575 -98.43
16.5000000 0.135564 -101.2 0.990765 -9.878 0.990765 -9.878 0.135380 -98.48
16.6000000 0.136371 -101.3 0.990658 -9.937 0.990658 -9.937 0.136185 -98.53
16.7000000 0.137178 -101.4 0.990551 -9.996 0.990551 -9.996 0.136990 -98.58
16.8000000 0.137984 -101.4 0.990444 -10.06 0.990444 -10.06 0.137794 -98.63
16.9000000 0.138790 -101.5 0.990335 -10.11 0.990335 -10.11 0.138598 -98.69
17.0000000 0.139595 -101.6 0.990226 -10.17 0.990226 -10.17 0.139401 -98.74
17.1000000 0.140400 -101.6 0.990117 -10.23 0.990117 -10.23 0.140204 -98.79
17.2000000 0.141204 -101.7 0.990007 -10.29 0.990007 -10.29 0.141007 -98.84
17.3000000 0.142008 -101.8 0.989896 -10.35 0.989896 -10.35 0.141809 -98.90
17.4000000 0.142812 -101.9 0.989785 -10.41 0.989785 -10.41 0.142610 -98.95
17.5000000 0.143615 -101.9 0.989673 -10.47 0.989673 -10.47 0.143411 -99.00
17.6000000 0.144417 -102.0 0.989560 -10.53 0.989560 -10.53 0.144212 -99.05
17.7000000 0.145219 -102.1 0.989447 -10.59 0.989447 -10.59 0.145013 -99.10
17.8000000 0.146021 -102.1 0.989334 -10.65 0.989334 -10.65 0.145812 -99.16
17.9000000 0.146822 -102.2 0.989220 -10.71 0.989220 -10.71 0.146612 -99.21
18.0000000 0.147622 -102.3 0.989105 -10.77 0.989105 -10.77 0.147411 -99.26
18.1000000 0.148423 -102.3 0.988989 -10.83 0.988989 -10.83 0.148209 -99.31
18.2000000 0.149222 -102.4 0.988873 -10.88 0.988873 -10.88 0.149008 -99.36
18.3000000 0.150021 -102.5 0.988757 -10.94 0.988757 -10.94 0.149805 -99.42
18.4000000 0.150820 -102.5 0.988639 -11.00 0.988639 -11.00 0.150602 -99.47
18.5000000 0.151618 -102.6 0.988522 -11.06 0.988522 -11.06 0.151399 -99.52
18.6000000 0.152415 -102.7 0.988403 -11.12 0.988403 -11.12 0.152195 -99.57
18.7000000 0.153212 -102.8 0.988284 -11.18 0.988284 -11.18 0.152991 -99.62
18.8000000 0.154008 -102.8 0.988164 -11.24 0.988164 -11.24 0.153786 -99.68
18.9000000 0.154804 -102.9 0.988044 -11.30 0.988044 -11.30 0.154581 -99.73
19.0000000 0.155600 -103.0 0.987923 -11.36 0.987923 -11.36 0.155376 -99.78
19.1000000 0.156394 -103.0 0.987801 -11.42 0.987801 -11.42 0.156170 -99.83
19.2000000 0.157189 -103.1 0.987679 -11.48 0.987679 -11.48 0.156963 -99.88
19.3000000 0.157982 -103.2 0.987556 -11.54 0.987556 -11.54 0.157756 -99.93
19.4000000 0.158775 -103.2 0.987433 -11.59 0.987433 -11.59 0.158548 -99.99
19.5000000 0.159568 -103.3 0.987309 -11.65 0.987309 -11.65 0.159340 -100.0
19.6000000 0.160360 -103.4 0.987184 -11.71 0.987184 -11.71 0.160132 -100.1
19.7000000 0.161151 -103.4 0.987058 -11.77 0.987058 -11.77 0.160923 -100.1
19.8000000 0.161942 -103.5 0.986932 -11.83 0.986932 -11.83 0.161713 -100.2
19.9000000 0.162732 -103.6 0.986806 -11.89 0.986806 -11.89 0.162503 -100.2
20.0000000 0.163522 -103.7 0.986678 -11.95 0.986678 -11.95 0.163293 -100.3
20.1000000 0.164311 -103.7 0.986550 -12.01 0.986550 -12.01 0.164082 -100.3
20.2000000 0.165100 -103.8 0.986422 -12.07 0.986422 -12.07 0.164871 -100.4
20.3000000 0.165888 -103.9 0.986292 -12.13 0.986292 -12.13 0.165659 -100.4
20.4000000 0.166675 -103.9 0.986162 -12.19 0.986162 -12.19 0.166446 -100.5
20.5000000 0.167462 -104.0 0.986032 -12.25 0.986032 -12.25 0.167233 -100.6
20.6000000 0.168248 -104.1 0.985901 -12.30 0.985901 -12.30 0.168020 -100.6
20.7000000 0.169033 -104.1 0.985769 -12.36 0.985769 -12.36 0.168806 -100.7
20.8000000 0.169818 -104.2 0.985636 -12.42 0.985636 -12.42 0.169591 -100.7
20.9000000 0.170603 -104.3 0.985503 -12.48 0.985503 -12.48 0.170376 -100.8
21.0000000 0.171386 -104.3 0.985369 -12.54 0.985369 -12.54 0.171161 -100.8
21.1000000 0.172170 -104.4 0.985234 -12.60 0.985234 -12.60 0.171945 -100.9
21.2000000 0.172952 -104.5 0.985099 -12.66 0.985099 -12.66 0.172729 -100.9
21.3000000 0.173734 -104.5 0.984963 -12.72 0.984963 -12.72 0.173512 -101.0
21.4000000 0.174515 -104.6 0.984826 -12.78 0.984826 -12.78 0.174294 -101.0
21.5000000 0.175296 -104.7 0.984689 -12.84 0.984689 -12.84 0.175076 -101.1
21.6000000 0.176076 -104.8 0.984551 -12.90 0.984551 -12.90 0.175858 -101.1
21.7000000 0.176855 -104.8 0.984412 -12.96 0.984412 -12.96 0.176639 -101.2
21.8000000 0.177634 -104.9 0.984273 -13.01 0.984273 -13.01 0.177419 -101.2
21.9000000 0.178412 -105.0 0.984132 -13.07 0.984132 -13.07 0.178199 -101.3
22.0000000 0.179190 -105.0 0.983992 -13.13 0.983992 -13.13 0.178979 -101.3
22.1000000 0.179966 -105.1 0.983850 -13.19 0.983850 -13.19 0.179757 -101.4
22.2000000 0.180743 -105.2 0.983708 -13.25 0.983708 -13.25 0.180536 -101.4
22.3000000 0.181518 -105.2 0.983565 -13.31 0.983565 -13.31 0.181314 -101.5
22.4000000 0.182293 -105.3 0.983421 -13.37 0.983421 -13.37 0.182091 -101.5
22.5000000 0.183067 -105.4 0.983277 -13.43 0.983277 -13.43 0.182868 -101.6
22.6000000 0.183841 -105.4 0.983132 -13.49 0.983132 -13.49 0.183644 -101.6
22.7000000 0.184614 -105.5 0.982986 -13.55 0.982986 -13.55 0.184420 -101.7
22.8000000 0.185386 -105.6 0.982840 -13.61 0.982840 -13.61 0.185196 -101.7
22.9000000 0.186158 -105.6 0.982693 -13.67 0.982693 -13.67 0.185971 -101.8
23.0000000 0.186929 -105.7 0.982545 -13.72 0.982545 -13.72 0.186745 -101.8
23.1000000 0.187699 -105.8 0.982396 -13.78 0.982396 -13.78 0.187519 -101.9
23.2000000 0.188469 -105.8 0.982247 -13.84 0.982247 -13.84 0.188292 -101.9
23.3000000 0.189238 -105.9 0.982097 -13.90 0.982097 -13.90 0.189065 -102.0
23.4000000 0.190006 -106.0 0.981946 -13.96 0.981946 -13.96 0.189837 -102.0
23.5000000 0.190774 -106.0 0.981795 -14.02 0.981795 -14.02 0.190609 -102.1
23.6000000 0.191541 -106.1 0.981642 -14.08 0.981642 -14.08 0.191380 -102.1
23.7000000 0.192307 -106.2 0.981489 -14.14 0.981489 -14.14 0.192151 -102.2
23.8000000 0.193073 -106.2 0.981336 -14.20 0.981336 -14.20 0.192921 -102.2
23.9000000 0.193838 -106.3 0.981181 -14.26 0.981181 -14.26 0.193691 -102.3
24.0000000 0.194602 -106.4 0.981026 -14.32 0.981026 -14.32 0.194460 -102.3
24.1000000 0.195366 -106.4 0.980870 -14.37 0.980870 -14.37 0.195228 -102.4
24.2000000 0.196129 -106.5 0.980714 -14.43 0.980714 -14.43 0.195996 -102.4
24.3000000 0.196891 -106.6 0.980556 -14.49 0.980556 -14.49 0.196764 -102.5
24.4000000 0.197653 -106.6 0.980398 -14.55 0.980398 -14.55 0.197531 -102.5
24.5000000 0.198414 -106.7 0.980239 -14.61 0.980239 -14.61 0.198298 -102.6
24.6000000 0.199174 -106.8 0.980080 -14.67 0.980080 -14.67 0.199064 -102.6
24.7000000 0.199933 -106.8 0.979919 -14.73 0.979919 -14.73 0.199829 -102.7
24.8000000 0.200692 -106.9 0.979758 -14.79 0.979758 -14.79 0.200595 -102.7
24.9000000 0.201450 -107.0 0.979596 -14.85 0.979596 -14.85 0.201359 -102.8
25.0000000 0.202208 -107.0 0.979434 -14.91 0.979434 -14.91 0.202123 -102.8
25.1000000 0.202965 -107.1 0.979270 -14.97 0.979270 -14.97 0.202887 -102.9
25.2000000 0.203721 -107.2 0.979106 -15.02 0.979106 -15.02 0.203650 -102.9
25.3000000 0.204476 -107.2 0.978941 -15.08 0.978941 -15.08 0.204412 -102.9
25.4000000 0.205231 -107.3 0.978776 -15.14 0.978776 -15.14 0.205174 -103.0
25.5000000 0.205985 -107.4 0.978609 -15.20 0.978609 -15.20 0.205936 -103.0
25.6000000 0.206738 -107.4 0.978442 -15.26 0.978442 -15.26 0.206697 -103.1
25.7000000 0.207491 -107.5 0.978274 -15.32 0.978274 -15.32 0.207457 -103.1
25.8000000 0.208243 -107.6 0.978106 -15.38 0.978106 -15.38 0.208217 -103.2
25.9000000 0.208994 -107.6 0.977936 -15.44 0.977936 -15.44 0.208977 -103.2
26.0000000 0.209744 -107.7 0.977766 -15.50 0.977766 -15.50 0.209736 -103.3
26.1000000 0.210494 -107.8 0.977595 -15.56 0.977595 -15.56 0.210494 -103.3
26.2000000 0.211275 -107.8 0.977442 -15.61 0.977442 -15.61 0.211266 -103.4
26.3000000 0.212056 -107.9 0.977288 -15.67 0.977288 -15.67 0.212038 -103.4
26.4000000 0.212836 -108.0 0.977134 -15.73 0.977134 -15.73 0.212810 -103.5
26.5000000 0.213616 -108.1 0.976979 -15.79 0.976979 -15.79 0.213580 -103.5
26.6000000 0.214395 -108.1 0.976824 -15.84 0.976824 -15.84 0.214351 -103.6
26.7000000 0.215174 -108.2 0.976669 -15.90 0.976669 -15.90 0.215120 -103.7
26.8000000 0.215952 -108.3 0.976513 -15.96 0.976513 -15.96 0.215890 -103.7
26.9000000 0.216730 -108.3 0.976356 -16.02 0.976356 -16.02 0.216658 -103.8
27.0000000 0.217507 -108.4 0.976199 -16.07 0.976199 -16.07 0.217426 -103.8
27.1000000 0.218284 -108.5 0.976041 -16.13 0.976041 -16.13 0.218194 -103.9
27.2000000 0.219060 -108.5 0.975883 -16.19 0.975883 -16.19 0.218961 -103.9
27.3000000 0.219836 -108.6 0.975725 -16.25 0.975725 -16.25 0.219727 -104.0
27.4000000 0.220611 -108.7 0.975565 -16.31 0.975565 -16.31 0.220493 -104.0
27.5000000 0.221386 -108.8 0.975406 -16.36 0.975406 -16.36 0.221259 -104.1
27.6000000 0.222160 -108.8 0.975246 -16.42 0.975246 -16.42 0.222024 -104.1
27.7000000 0.222934 -108.9 0.975085 -16.48 0.975085 -16.48 0.222788 -104.2
27.8000000 0.223707 -109.0 0.974924 -16.54 0.974924 -16.54 0.223552 -104.2
27.9000000 0.224479 -109.0 0.974762 -16.59 0.974762 -16.59 0.224315 -104.3
28.0000000 0.225252 -109.1 0.974600 -16.65 0.974600 -16.65 0.225077 -104.3
28.1000000 0.226023 -109.2 0.974438 -16.71 0.974438 -16.71 0.225839 -104.4
28.2000000 0.226794 -109.2 0.974275 -16.77 0.974275 -16.77 0.226601 -104.4
28.3000000 0.227565 -109.3 0.974111 -16.82 0.974111 -16.82 0.227362 -104.5
28.4000000 0.228335 -109.4 0.973947 -16.88 0.973947 -16.88 0.228122 -104.5
28.5000000 0.229104 -109.4 0.973782 -16.94 0.973782 -16.94 0.228882 -104.6
28.6000000 0.229873 -109.5 0.973617 -17.00 0.973617 -17.00 0.229642 -104.7
28.7000000 0.230641 -109.6 0.973451 -17.05 0.973451 -17.05 0.230400 -104.7
28.8000000 0.231409 -109.7 0.973285 -17.11 0.973285 -17.11 0.231159 -104.8
28.9000000 0.232176 -109.7 0.973118 -17.17 0.973118 -17.17 0.231916 -104.8
29.0000000 0.232943 -109.8 0.972950 -17.23 0.972950 -17.23 0.232673 -104.9
29.1000000 0.233709 -109.9 0.972783 -17.28 0.972783 -17.28 0.233430 -104.9
29.2000000 0.234474 -109.9 0.972614 -17.34 0.972614 -17.34 0.234186 -105.0
29.3000000 0.235239 -110.0 0.972445 -17.40 0.972445 -17.40 0.234941 -105.0
29.4000000 0.236004 -110.1 0.972276 -17.45 0.972276 -17.45 0.235696 -105.1
29.5000000 0.236768 -110.1 0.972106 -17.51 0.972106 -17.51 0.236451 -105.1
29.6000000 0.237531 -110.2 0.971935 -17.57 0.971935 -17.57 0.237204 -105.2
29.7000000 0.238294 -110.3 0.971764 -17.63 0.971764 -17.63 0.237958 -105.2
29.8000000 0.239056 -110.3 0.971592 -17.68 0.971592 -17.68 0.238710 -105.3
29.9000000 0.239818 -110.4 0.971420 -17.74 0.971420 -17.74 0.239463 -105.3
30.0000000 0.240579 -110.5 0.971247 -17.80 0.971247 -17.80 0.240214 -105.4
30.1000000 0.241339 -110.6 0.971074 -17.86 0.971074 -17.86 0.240965 -105.4
30.2000000 0.242099 -110.6 0.970900 -17.91 0.970900 -17.91 0.241716 -105.5
30.3000000 0.242858 -110.7 0.970726 -17.97 0.970726 -17.97 0.242465 -105.5
30.4000000 0.243617 -110.8 0.970551 -18.03 0.970551 -18.03 0.243215 -105.6
30.5000000 0.244375 -110.8 0.970375 -18.09 0.970375 -18.09 0.243964 -105.6
30.6000000 0.245133 -110.9 0.970199 -18.14 0.970199 -18.14 0.244712 -105.7
30.7000000 0.245890 -111.0 0.970023 -18.20 0.970023 -18.20 0.245460 -105.7
30.8000000 0.246646 -111.0 0.969845 -18.26 0.969845 -18.26 0.246207 -105.8
30.9000000 0.247402 -111.1 0.969668 -18.31 0.969668 -18.31 0.246953 -105.8
31.0000000 0.248158 -111.2 0.969489 -18.37 0.969489 -18.37 0.247699 -105.9
31.1000000 0.248912 -111.2 0.969310 -18.43 0.969310 -18.43 0.248445 -105.9
31.2000000 0.249666 -111.3 0.969131 -18.49 0.969131 -18.49 0.249190 -106.0
31.3000000 0.250420 -111.4 0.968951 -18.54 0.968951 -18.54 0.249934 -106.0
31.4000000 0.251173 -111.4 0.968770 -18.60 0.968770 -18.60 0.250678 -106.1
31.5000000 0.251925 -111.5 0.968589 -18.66 0.968589 -18.66 0.251421 -106.1
31.6000000 0.252677 -111.6 0.968407 -18.71 0.968407 -18.71 0.252164 -106.2
31.7000000 0.253428 -111.6 0.968225 -18.77 0.968225 -18.77 0.252906 -106.2
31.8000000 0.254179 -111.7 0.968042 -18.83 0.968042 -18.83 0.253648 -106.3
31.9000000 0.254929 -111.8 0.967859 -18.89 0.967859 -18.89 0.254389 -106.3
32.0000000 0.255678 -111.8 0.967675 -18.94 0.967675 -18.94 0.255129 -106.4
32.1000000 0.256427 -111.9 0.967490 -19.00 0.967490 -19.00 0.255869 -106.4
32.2000000 0.257175 -112.0 0.967305 -19.06 0.967305 -19.06 0.256608 -106.5
32.3000000 0.257923 -112.1 0.967119 -19.11 0.967119 -19.11 0.257347 -106.5
32.4000000 0.258670 -112.1 0.966933 -19.17 0.966933 -19.17 0.258086 -106.6
32.5000000 0.259416 -112.2 0.966746 -19.23 0.966746 -19.23 0.258823 -106.6
32.6000000 0.260162 -112.3 0.966558 -19.28 0.966558 -19.28 0.259561 -106.7
32.7000000 0.260907 -112.3 0.966370 -19.34 0.966370 -19.34 0.260297 -106.7
32.8000000 0.261652 -112.4 0.966182 -19.40 0.966182 -19.40 0.261033 -106.8
32.9000000 0.262396 -112.5 0.965992 -19.46 0.965992 -19.46 0.261769 -106.8
33.0000000 0.263139 -112.5 0.965803 -19.51 0.965803 -19.51 0.262504 -106.9
33.1000000 0.263882 -112.6 0.965612 -19.57 0.965612 -19.57 0.263239 -106.9
33.2000000 0.264624 -112.7 0.965421 -19.63 0.965421 -19.63 0.263972 -107.0
33.3000000 0.265366 -112.7 0.965229 -19.68 0.965229 -19.68 0.264706 -107.0
33.4000000 0.266107 -112.8 0.965037 -19.74 0.965037 -19.74 0.265439 -107.1
33.5000000 0.266847 -112.9 0.964844 -19.80 0.964844 -19.80 0.266171 -107.1
33.6000000 0.267587 -112.9 0.964651 -19.85 0.964651 -19.85 0.266903 -107.2
33.7000000 0.268326 -113.0 0.964457 -19.91 0.964457 -19.91 0.267634 -107.2
33.8000000 0.269064 -113.1 0.964262 -19.97 0.964262 -19.97 0.268365 -107.3
33.9000000 0.269802 -113.1 0.964067 -20.02 0.964067 -20.02 0.269095 -107.3
34.0000000 0.270540 -113.2 0.963871 -20.08 0.963871 -20.08 0.269825 -107.4
34.1000000 0.271276 -113.3 0.963675 -20.14 0.963675 -20.14 0.270554 -107.4
34.2000000 0.272012 -113.3 0.963478 -20.19 0.963478 -20.19 0.271282 -107.5
34.3000000 0.272748 -113.4 0.963280 -20.25 0.963280 -20.25 0.272010 -107.5
34.4000000 0.273483 -113.5 0.963082 -20.31 0.963082 -20.31 0.272738 -107.6
34.5000000 0.274217 -113.5 0.962884 -20.37 0.962884 -20.37 0.273465 -107.6
34.6000000 0.274951 -113.6 0.962684 -20.42 0.962684 -20.42 0.274191 -107.7
34.7000000 0.275684 -113.7 0.962484 -20.48 0.962484 -20.48 0.274917 -107.7
34.8000000 0.276416 -113.7 0.962284 -20.54 0.962284 -20.54 0.275643 -107.8
34.9000000 0.277148 -113.8 0.962082 -20.59 0.962082 -20.59 0.276368 -107.8
35.0000000 0.277879 -113.9 0.961881 -20.65 0.961881 -20.65 0.277092 -107.9
35.1000000 0.278609 -113.9 0.961678 -20.70 0.961678 -20.70 0.277816 -107.9
35.2000000 0.279339 -114.0 0.961475 -20.76 0.961475 -20.76 0.278539 -108.0
35.3000000 0.280068 -114.1 0.961272 -20.82 0.961272 -20.82 0.279262 -108.0
35.4000000 0.280797 -114.1 0.961067 -20.87 0.961067 -20.87 0.279984 -108.1
35.5000000 0.281525 -114.2 0.960863 -20.93 0.960863 -20.93 0.280706 -108.1
35.6000000 0.282252 -114.3 0.960657 -20.99 0.960657 -20.99 0.281427 -108.2
35.7000000 0.282979 -114.3 0.960451 -21.04 0.960451 -21.04 0.282148 -108.2
35.8000000 0.283705 -114.4 0.960245 -21.10 0.960245 -21.10 0.282868 -108.3
35.9000000 0.284431 -114.5 0.960037 -21.16 0.960037 -21.16 0.283588 -108.3
36.0000000 0.285156 -114.5 0.959829 -21.21 0.959829 -21.21 0.284307 -108.4
36.1000000 0.285880 -114.6 0.959621 -21.27 0.959621 -21.27 0.285025 -108.4
36.2000000 0.286604 -114.7 0.959412 -21.33 0.959412 -21.33 0.285743 -108.5
36.3000000 0.287327 -114.7 0.959202 -21.38 0.959202 -21.38 0.286461 -108.5
36.4000000 0.288049 -114.8 0.958992 -21.44 0.958992 -21.44 0.287178 -108.6
36.5000000 0.288771 -114.9 0.958781 -21.50 0.958781 -21.50 0.287895 -108.6
36.6000000 0.289492 -114.9 0.958570 -21.55 0.958570 -21.55 0.288611 -108.7
36.7000000 0.290213 -115.0 0.958357 -21.61 0.958357 -21.61 0.289326 -108.7
36.8000000 0.290933 -115.0 0.958145 -21.66 0.958145 -21.66 0.290041 -108.8
36.9000000 0.291652 -115.1 0.957931 -21.72 0.957931 -21.72 0.290756 -108.8
37.0000000 0.292371 -115.2 0.957717 -21.78 0.957717 -21.78 0.291470 -108.9
37.1000000 0.293089 -115.2 0.957503 -21.83 0.957503 -21.83 0.292183 -108.9
37.2000000 0.293806 -115.3 0.957288 -21.89 0.957288 -21.89 0.292896 -109.0
37.3000000 0.294523 -115.4 0.957072 -21.95 0.957072 -21.95 0.293609 -109.0
37.4000000 0.295239 -115.4 0.956856 -22.00 0.956856 -22.00 0.294321 -109.0
37.5000000 0.295954 -115.5 0.956639 -22.06 0.956639 -22.06 0.295032 -109.1
37.6000000 0.296669 -115.6 0.956421 -22.11 0.956421 -22.11 0.295744 -109.1
37.7000000 0.297383 -115.6 0.956203 -22.17 0.956203 -22.17 0.296454 -109.2
37.8000000 0.298097 -115.7 0.955984 -22.23 0.955984 -22.23 0.297164 -109.2
37.9000000 0.298810 -115.8 0.955764 -22.28 0.955764 -22.28 0.297874 -109.3
38.0000000 0.299522 -115.8 0.955544 -22.34 0.955544 -22.34 0.298583 -109.3
38.1000000 0.300234 -115.9 0.955324 -22.40 0.955324 -22.40 0.299291 -109.4
38.2000000 0.300945 -116.0 0.955102 -22.45 0.955102 -22.45 0.299999 -109.4
38.3000000 0.301656 -116.0 0.954881 -22.51 0.954881 -22.51 0.300707 -109.5
38.4000000 0.302366 -116.1 0.954658 -22.56 0.954658 -22.56 0.301414 -109.5
38.5000000 0.303075 -116.2 0.954435 -22.62 0.954435 -22.62 0.302120 -109.6
38.6000000 0.303783 -116.2 0.954211 -22.68 0.954211 -22.68 0.302827 -109.6
38.7000000 0.304491 -116.3 0.953987 -22.73 0.953987 -22.73 0.303532 -109.7
38.8000000 0.305199 -116.3 0.953762 -22.79 0.953762 -22.79 0.304237 -109.7
38.9000000 0.305905 -116.4 0.953536 -22.84 0.953536 -22.84 0.304942 -109.8
39.0000000 0.306611 -116.5 0.953310 -22.90 0.953310 -22.90 0.305646 -109.8
39.1000000 0.307317 -116.5 0.953083 -22.95 0.953083 -22.95 0.306350 -109.8
39.2000000 0.308022 -116.6 0.952856 -23.01 0.952856 -23.01 0.307053 -109.9
39.3000000 0.308726 -116.7 0.952628 -23.07 0.952628 -23.07 0.307756 -109.9
39.4000000 0.309429 -116.7 0.952399 -23.12 0.952399 -23.12 0.308458 -110.0
39.5000000 0.310132 -116.8 0.952170 -23.18 0.952170 -23.18 0.309160 -110.0
39.6000000 0.310834 -116.9 0.951940 -23.23 0.951940 -23.23 0.309861 -110.1
39.7000000 0.311536 -116.9 0.951710 -23.29 0.951710 -23.29 0.310562 -110.1